 vasp.6.4.0 14Feb23 (build Mar 11 2024 14:58:30) complex                         
 executed on             epyc9004 date 2024.08.19  19:09:03
 running  288 mpi-ranks, on    3 nodes
 distrk:  each k-point on   96 cores,    3 groups
 distr:  one band on NCORE=   4 cores,   24 groups


--------------------------------------------------------------------------------------------------------


 INCAR:
   ENCUT = 520.000000
   SIGMA = 0.050000
   TIME = 0.050000
   NUPDOWN = 119.000000
   EDIFF = 1.00e-06
   EDIFFG = -2.00e-02
   SYMPREC = 1.00e-07
   ALGO = all
   GGA = PE
   PREC = accurate
   IBRION = 2
   ISIF = 2
   ISMEAR = 0
   ISPIN = 2
   ISYM = 0
   KPAR = 3
   LMAXMIX = 4
   LORBIT = 12
   NELM = 300
   NELMIN = 8
   NSW = 1
   NCORE = 4
   LASPH = .TRUE.
   LCHARG = .TRUE.
   LDAU = .TRUE.
   LWAVE = .TRUE.
   LREAL = auto
   LDAUL = 2 -1 -1 -1
   LDAUU = 5.300 0.000 0.000 0.000
   LDAUJ = 0.000 0.000 0.000 0.000
   MAGMOM = 1*4.3473 1*4.3402 1*4.3442 1*4.3460 1*4.3413 1*4.3428 1*4.3490 1*4.3450 1*4.3447 1*4.3408 1*4.3460 1*4.3430 1*4.3427 1*4.3462 1*3.7850 1*4.3300 1*4.3450 1*4.3460 1*4.3448 1*4.3460 1*4.3470 1*4.3462 1*4.3490 1*4.3450 1*0.0133 3*0.0150 1*0.0133 1*0.0160 2*0.0150 1*0.0147 1*0.0150 1*0.0130 1*0.0150 1*0.0147 2*0.0160 1*0.0130 8*0.0150 1*0.1052 1*0.1168 1*0.1190 1*0.1158 1*0.1120 1*0.0998 1*0.1087 1*0.1103 1*0.1310 1*0.1318 1*0.1295 2*0.1360 1*0.1335 1*0.1305 1*0.1350 1*0.0978 1*0.1195 1*0.1122 1*0.1163 1*0.1235 1*0.0873 1*0.1032 1*0.1120 1*0.1158 1*0.1360 1*0.1310 1*0.1373 1*0.1312 1*0.1378 1*0.1292 1*0.1240 1*0.1138 1*0.1162 1*0.1120 1*0.1170 1*0.1120 1*0.1032 1*0.1070 1*0.1040 1*0.1365 1*0.1350 1*0.1345 1*0.1322 1*0.1365 1*0.1368 1*0.1350 1*0.1312 1*0.1132 1*0.1175 1*0.0300 1*0.1250 1*0.1177 1*0.1007 1*0.0490 1*0.1000 1*0.1338 1*0.1200 1*0.0983 1*0.1352 1*0.0917 1*0.1398 1*0.1312 1*0.1360 1*0.1170 1*0.1180 1*0.1190 1*0.1152 1*0.1110 1*0.1080 1*0.1073 1*0.1117 1*0.1368 1*0.1343 1*0.1360 1*0.1355 1*0.1315 1*0.1360 1*0.1362 1*0.1357 1*0.1170 1*0.1160 1*0.1128 1*0.1177 1*0.1092 1*0.1080 1*0.1038 1*0.1120 1*0.1360 1*0.1340 1*0.1318 1*0.1380 1*0.1318 1*0.1387 1*0.1360 1*0.1340 1*0.0000

 POTCAR:    PAW_PBE Fe_pv 02Aug2007               
 POTCAR:    PAW_PBE P 06Sep2000                   
 POTCAR:    PAW_PBE O 08Apr2002                   
 POTCAR:    PAW_PBE Na_pv 19Sep2006               
 -----------------------------------------------------------------------------
|                                                                             |
|           W    W    AA    RRRRR   N    N  II  N    N   GGGG   !!!           |
|           W    W   A  A   R    R  NN   N  II  NN   N  G    G  !!!           |
|           W    W  A    A  R    R  N N  N  II  N N  N  G       !!!           |
|           W WW W  AAAAAA  RRRRR   N  N N  II  N  N N  G  GGG   !            |
|           WW  WW  A    A  R   R   N   NN  II  N   NN  G    G                |
|           W    W  A    A  R    R  N    N  II  N    N   GGGG   !!!           |
|                                                                             |
|     For optimal performance we recommend to set                             |
|       NCORE = 2 up to number-of-cores-per-socket                            |
|     NCORE specifies how many cores store one orbital (NPAR=cpu/NCORE).      |
|     This setting can greatly improve the performance of VASP for DFT.       |
|     The default, NCORE=1 might be grossly inefficient on modern             |
|     multi-core architectures or massively parallel machines. Do your        |
|     own testing! More info at https://www.vasp.at/wiki/index.php/NCORE      |
|     Unfortunately you need to use the default for GW and RPA                |
|     calculations (for HF NCORE is supported but not extensively tested      |
|     yet).                                                                   |
|                                                                             |
 -----------------------------------------------------------------------------

 POTCAR:    PAW_PBE Fe_pv 02Aug2007               
   VRHFIN =Fe:  3pd7s1                                                                              
   LEXCH  = PE                                                                                      
   EATOM  =  2457.4239 eV,  180.6156 Ry                                                             
                                                                                                    
   TITEL  = PAW_PBE Fe_pv 02Aug2007                                                                 
   LULTRA =        F    use ultrasoft PP ?                                                          
   IUNSCR =        1    unscreen: 0-lin 1-nonlin 2-no                                               
   RPACOR =    1.750    partial core radius                                                         
   POMASS =   55.847; ZVAL   =   14.000    mass and valenz                                          
   RCORE  =    2.200    outmost cutoff radius                                                       
   RWIGS  =    2.200; RWIGS  =    1.164    wigner-seitz radius (au A)                               
   ENMAX  =  293.238; ENMIN  =  219.928 eV                                                          
   ICORE  =        3    local potential                                                             
   LCOR   =        T    correct aug charges                                                         
   LPAW   =        T    paw PP                                                                      
   EAUG   =  578.342                                                                                
   DEXC   =    0.000                                                                                
   RMAX   =    2.249    core radius for proj-oper                                                   
   RAUG   =    1.300    factor for augmentation sphere                                              
   RDEP   =    2.296    radius for radial grids                                                     
   RDEPT  =    1.766    core radius for aug-charge                                                  
                                                                                                    
   Atomic configuration                                                                             
    8 entries                                                                                       
     n  l   j            E        occ.                                                              
     1  0  0.50     -6993.8440   2.0000                                                             
     2  0  0.50      -814.6047   2.0000                                                             
     2  1  1.50      -693.3689   6.0000                                                             
     3  0  0.50       -89.4732   2.0000                                                             
     3  1  1.50       -55.6373   6.0000                                                             
     3  2  2.50        -3.8151   7.0000                                                             
     4  0  0.50        -4.2551   1.0000                                                             
     4  3  2.50        -1.3606   0.0000                                                             
   Description                                                                                      
     l       E           TYP  RCUT    TYP  RCUT                                                     
     1    -55.6372668     23  2.000                                                                 
     1     -5.4423304     23  2.000                                                                 
     2     -3.8151096     23  2.200                                                                 
     2     -5.1756922     23  2.200                                                                 
     0     -4.2550951     23  2.200                                                                 
     0     27.2116520     23  2.200                                                                 
     3     -1.3605826     23  2.200                                                                 
  local pseudopotential read in
  partial core-charges read in
  partial kinetic energy density read in
  atomic valenz-charges read in
  non local Contribution for L=           1  read in
    real space projection operators read in
  non local Contribution for L=           1  read in
    real space projection operators read in
  non local Contribution for L=           2  read in
    real space projection operators read in
  non local Contribution for L=           2  read in
    real space projection operators read in
  non local Contribution for L=           0  read in
    real space projection operators read in
  non local Contribution for L=           0  read in
    real space projection operators read in
    PAW grid and wavefunctions read in

   number of l-projection  operators is LMAX  =           6
   number of lm-projection operators is LMMAX =          18

 POTCAR:    PAW_PBE P 06Sep2000                   
   VRHFIN =P : s2p3                                                                                 
   LEXCH  = PE                                                                                      
   EATOM  =   176.0430 eV,   12.9388 Ry                                                             
                                                                                                    
   TITEL  = PAW_PBE P 06Sep2000                                                                     
   LULTRA =        F    use ultrasoft PP ?                                                          
   IUNSCR =        1    unscreen: 0-lin 1-nonlin 2-no                                               
   RPACOR =    1.500    partial core radius                                                         
   POMASS =   30.974; ZVAL   =    5.000    mass and valenz                                          
   RCORE  =    1.900    outmost cutoff radius                                                       
   RWIGS  =    2.330; RWIGS  =    1.233    wigner-seitz radius (au A)                               
   ENMAX  =  255.040; ENMIN  =  191.280 eV                                                          
   ICORE  =        2    local potential                                                             
   LCOR   =        T    correct aug charges                                                         
   LPAW   =        T    paw PP                                                                      
   EAUG   =  342.924                                                                                
   DEXC   =    0.000                                                                                
   RMAX   =    1.935    core radius for proj-oper                                                   
   RAUG   =    1.300    factor for augmentation sphere                                              
   RDEP   =    1.931    radius for radial grids                                                     
   RDEPT  =    1.794    core radius for aug-charge                                                  
                                                                                                    
   Atomic configuration                                                                             
    6 entries                                                                                       
     n  l   j            E        occ.                                                              
     1  0  0.50     -2084.0982   2.0000                                                             
     2  0  0.50      -173.9859   2.0000                                                             
     2  1  1.50      -124.4865   6.0000                                                             
     3  0  0.50       -13.9692   2.0000                                                             
     3  1  0.50        -5.5067   3.0000                                                             
     3  2  1.50        -5.4423   0.0000                                                             
   Description                                                                                      
     l       E           TYP  RCUT    TYP  RCUT                                                     
     0    -13.9691527     23  1.900                                                                 
     0    -11.7794650     23  1.900                                                                 
     1     -5.5066937     23  1.900                                                                 
     1     -0.2556953     23  1.900                                                                 
     2     -5.4423304     23  1.900                                                                 
  local pseudopotential read in
  partial core-charges read in
  partial kinetic energy density read in
  atomic valenz-charges read in
  non local Contribution for L=           0  read in
    real space projection operators read in
  non local Contribution for L=           0  read in
    real space projection operators read in
  non local Contribution for L=           1  read in
    real space projection operators read in
  non local Contribution for L=           1  read in
    real space projection operators read in
    PAW grid and wavefunctions read in

   number of l-projection  operators is LMAX  =           4
   number of lm-projection operators is LMMAX =           8

 POTCAR:    PAW_PBE O 08Apr2002                   
   VRHFIN =O: s2p4                                                                                  
   LEXCH  = PE                                                                                      
   EATOM  =   432.3788 eV,   31.7789 Ry                                                             
                                                                                                    
   TITEL  = PAW_PBE O 08Apr2002                                                                     
   LULTRA =        F    use ultrasoft PP ?                                                          
   IUNSCR =        1    unscreen: 0-lin 1-nonlin 2-no                                               
   RPACOR =    1.200    partial core radius                                                         
   POMASS =   16.000; ZVAL   =    6.000    mass and valenz                                          
   RCORE  =    1.520    outmost cutoff radius                                                       
   RWIGS  =    1.550; RWIGS  =    0.820    wigner-seitz radius (au A)                               
   ENMAX  =  400.000; ENMIN  =  300.000 eV                                                          
   ICORE  =        2    local potential                                                             
   LCOR   =        T    correct aug charges                                                         
   LPAW   =        T    paw PP                                                                      
   EAUG   =  605.392                                                                                
   DEXC   =    0.000                                                                                
   RMAX   =    1.553    core radius for proj-oper                                                   
   RAUG   =    1.300    factor for augmentation sphere                                              
   RDEP   =    1.550    radius for radial grids                                                     
   RDEPT  =    1.329    core radius for aug-charge                                                  
                                                                                                    
   Atomic configuration                                                                             
    4 entries                                                                                       
     n  l   j            E        occ.                                                              
     1  0  0.50      -514.6923   2.0000                                                             
     2  0  0.50       -23.9615   2.0000                                                             
     2  1  0.50        -9.0305   4.0000                                                             
     3  2  1.50        -9.5241   0.0000                                                             
   Description                                                                                      
     l       E           TYP  RCUT    TYP  RCUT                                                     
     0    -23.9615318     23  1.200                                                                 
     0     -9.5240782     23  1.200                                                                 
     1     -9.0304911     23  1.520                                                                 
     1      8.1634956     23  1.520                                                                 
     2     -9.5240782      7  1.500                                                                 
  local pseudopotential read in
  partial core-charges read in
  partial kinetic energy density read in
  kinetic energy density of atom read in
  atomic valenz-charges read in
  non local Contribution for L=           0  read in
    real space projection operators read in
  non local Contribution for L=           0  read in
    real space projection operators read in
  non local Contribution for L=           1  read in
    real space projection operators read in
  non local Contribution for L=           1  read in
    real space projection operators read in
    PAW grid and wavefunctions read in

   number of l-projection  operators is LMAX  =           4
   number of lm-projection operators is LMMAX =           8

 POTCAR:    PAW_PBE Na_pv 19Sep2006               
   VRHFIN =Na: p6s1                                                                                 
   LEXCH  = PE                                                                                      
   EATOM  =   766.0439 eV,   56.3026 Ry                                                             
                                                                                                    
   TITEL  = PAW_PBE Na_pv 19Sep2006                                                                 
   LULTRA =        F    use ultrasoft PP ?                                                          
   IUNSCR =        1    unscreen: 0-lin 1-nonlin 2-no                                               
   RPACOR =    1.800    partial core radius                                                         
   POMASS =   22.990; ZVAL   =    7.000    mass and valenz                                          
   RCORE  =    2.200    outmost cutoff radius                                                       
   RWIGS  =    2.200; RWIGS  =    1.164    wigner-seitz radius (au A)                               
   ENMAX  =  259.561; ENMIN  =  194.671 eV                                                          
   ICORE  =        2    local potential                                                             
   LCOR   =        T    correct aug charges                                                         
   LPAW   =        T    paw PP                                                                      
   EAUG   =  368.056                                                                                
   DEXC   =    0.000                                                                                
   RMAX   =    2.245    core radius for proj-oper                                                   
   RAUG   =    1.300    factor for augmentation sphere                                              
   RDEP   =    2.259    radius for radial grids                                                     
   RDEPT  =    1.738    core radius for aug-charge                                                  
                                                                                                    
   Atomic configuration                                                                             
    5 entries                                                                                       
     n  l   j            E        occ.                                                              
     1  0  0.50     -1033.6933   2.0000                                                             
     2  0  0.50       -56.7526   2.0000                                                             
     2  1  1.50       -28.6721   6.0000                                                             
     3  0  0.50        -2.7440   1.0000                                                             
     3  2  1.50        -1.3606   0.0000                                                             
   Description                                                                                      
     l       E           TYP  RCUT    TYP  RCUT                                                     
     1    -28.6720912     23  2.000                                                                 
     1      6.8029130     23  2.000                                                                 
     0     -2.7439560     23  2.200                                                                 
     0     34.0145650     23  2.200                                                                 
     2     -1.3605826     23  2.200                                                                 
  local pseudopotential read in
  partial core-charges read in
  partial kinetic energy density read in
  atomic valenz-charges read in
  non local Contribution for L=           1  read in
    real space projection operators read in
  non local Contribution for L=           1  read in
    real space projection operators read in
  non local Contribution for L=           0  read in
    real space projection operators read in
  non local Contribution for L=           0  read in
    real space projection operators read in
    PAW grid and wavefunctions read in

   number of l-projection  operators is LMAX  =           4
   number of lm-projection operators is LMMAX =           8

 Optimization of the real space projectors (new method)

 maximal supplied QI-value         = 17.01
 optimisation between [QCUT,QGAM] = [ 11.57, 23.30] = [ 37.45,152.03] Ry 
 Optimized for a Real-space Cutoff    1.45 Angstroem

   l    n(q)    QCUT    max X(q) W(low)/X(q) W(high)/X(q)  e(spline) 
   1     10    11.565     4.267    0.91E-04    0.15E-03    0.13E-06
   1     10    11.565     5.750    0.14E-03    0.22E-03    0.20E-06
   2      9    11.565    53.656    0.13E-03    0.57E-04    0.16E-06
   2      9    11.565    49.521    0.13E-03    0.59E-04    0.16E-06
   0     10    11.565    31.246    0.61E-04    0.74E-05    0.89E-07
   0     10    11.565    12.201    0.44E-04    0.68E-05    0.74E-07
 Optimization of the real space projectors (new method)

 maximal supplied QI-value         = 19.84
 optimisation between [QCUT,QGAM] = [ 11.51, 23.22] = [ 37.09,150.92] Ry 
 Optimized for a Real-space Cutoff    1.21 Angstroem

   l    n(q)    QCUT    max X(q) W(low)/X(q) W(high)/X(q)  e(spline) 
   0      8    11.508   160.924    0.96E-04    0.17E-03    0.52E-07
   0      8    11.508   130.086    0.95E-04    0.17E-03    0.51E-07
   1      8    11.508    74.434    0.16E-03    0.74E-04    0.91E-07
   1      8    11.508    49.120    0.16E-03    0.71E-04    0.89E-07
 Optimization of the real space projectors (new method)

 maximal supplied QI-value         = 24.76
 optimisation between [QCUT,QGAM] = [ 11.64, 23.27] = [ 37.91,151.63] Ry 
 Optimized for a Real-space Cutoff    1.14 Angstroem

   l    n(q)    QCUT    max X(q) W(low)/X(q) W(high)/X(q)  e(spline) 
   0      8    11.635    20.381    0.10E-03    0.33E-03    0.24E-06
   0      8    11.635    15.268    0.11E-03    0.35E-03    0.26E-06
   1      7    11.635     5.964    0.24E-03    0.31E-03    0.30E-06
   1      7    11.635     5.382    0.22E-03    0.25E-03    0.26E-06
 Optimization of the real space projectors (new method)

 maximal supplied QI-value         = 17.01
 optimisation between [QCUT,QGAM] = [ 11.57, 23.30] = [ 37.45,152.03] Ry 
 Optimized for a Real-space Cutoff    1.45 Angstroem

   l    n(q)    QCUT    max X(q) W(low)/X(q) W(high)/X(q)  e(spline) 
   1     10    11.565     4.940    0.87E-04    0.13E-03    0.13E-06
   1     10    11.565     6.253    0.13E-03    0.19E-03    0.20E-06
   0     10    11.565    37.438    0.53E-04    0.73E-05    0.79E-07
   0     10    11.565     9.606    0.27E-04    0.60E-05    0.56E-07
  PAW_PBE Fe_pv 02Aug2007               :
 energy of atom  1       EATOM=-2457.4239
 kinetic energy error for atom=    0.0062 (will be added to EATOM!!)
  PAW_PBE P 06Sep2000                   :
 energy of atom  2       EATOM= -176.0430
 kinetic energy error for atom=    0.0011 (will be added to EATOM!!)
  PAW_PBE O 08Apr2002                   :
 energy of atom  3       EATOM= -432.3788
 kinetic energy error for atom=    0.0208 (will be added to EATOM!!)
  PAW_PBE Na_pv 19Sep2006               :
 energy of atom  4       EATOM= -766.0439
 kinetic energy error for atom=    0.0019 (will be added to EATOM!!)


 POSCAR: Fe P  O  Na
  positions in cartesian coordinates
  No initial velocities read in
 exchange correlation table for  LEXCH =        8
   RHO(1)=    0.500       N(1)  =     2000
   RHO(2)=  100.500       N(2)  =     4000



--------------------------------------------------------------------------------------------------------


 ion  position               nearest neighbor table
   1  0.782  0.249  0.254-  49 1.94  53 1.96  62 2.16  92 2.18  63 2.20  57 2.20  25 2.86
   2  0.280  0.250  0.491-  50 1.93  70 2.01  80 2.06  59 2.16  93 2.16  74 2.36  30 2.87
   3  0.220  0.083  0.244-  51 1.93  55 1.97 128 2.17  58 2.18  61 2.21  59 2.23
   4  0.718  0.082  0.007-  52 1.94  72 1.96 121 2.14  63 2.17  76 2.19  78 2.24
   5  0.783  0.246  0.757-  69 1.95  65 1.98  78 2.11 108 2.19  79 2.20  73 2.27
   6  0.283  0.251  0.994-  66 1.94  54 1.98 109 2.13  75 2.19  64 2.20  58 2.22  26 2.87
   7  0.218  0.082  0.744-  67 1.95  71 1.99  74 2.07 144 2.15  77 2.21  75 2.24
   8  0.719  0.082  0.506-  68 1.94  56 1.97 137 2.15  79 2.18  60 2.19  62 2.24
   9  0.782  0.586  0.255-  81 1.94  85 1.96 124 2.14  89 2.18  94 2.21  95 2.22  33 2.87
  10  0.279  0.584  0.492-  82 1.93 102 1.98 106 2.07  91 2.17 125 2.18 112 2.34  38 2.87
  11  0.219  0.417  0.246-  83 1.92  87 1.96  90 2.18  91 2.19  93 2.20  64 2.20  35 2.86
  12  0.721  0.419  0.008-  84 1.92 104 1.98  95 2.14 110 2.17  57 2.22 108 2.23  40 2.86
  13  0.780  0.586  0.757-  97 1.94 101 1.96 140 2.16 105 2.18 110 2.19 111 2.28
  14  0.283  0.583  0.993-  98 1.94  86 1.99 107 2.08 141 2.18  90 2.22  96 2.23
  15  0.209  0.420  0.737- 103 1.99  99 2.06 106 2.25  80 2.36
  16  0.722  0.421  0.495- 100 1.92  88 1.97  94 2.12 111 2.15  92 2.20  73 2.30  36 2.81
  17  0.781  0.917  0.257- 113 1.93 117 1.97 126 2.16  60 2.18 127 2.21 121 2.22
  18  0.280  0.917  0.494- 114 1.93 134 1.97 123 2.15  61 2.17 138 2.21 144 2.22
  19  0.220  0.750  0.244- 115 1.93 119 1.97  96 2.17 122 2.18 125 2.20 123 2.23
  20  0.718  0.751  0.007- 116 1.94 136 1.96 127 2.16  89 2.17 142 2.20 140 2.21  48 2.87
  21  0.779  0.917  0.757- 129 1.94 133 1.97 142 2.14  76 2.17 143 2.21 137 2.22
  22  0.280  0.917  0.995- 130 1.94 118 1.97 139 2.16  77 2.17 122 2.21 128 2.22
  23  0.218  0.751  0.744- 131 1.95 135 1.99 112 2.07 138 2.16 139 2.22 141 2.23
  24  0.719  0.751  0.507- 132 1.93 120 1.97 143 2.16 105 2.19 126 2.21 124 2.23
  25  0.608  0.250  0.031-  54 1.54  65 1.55  63 1.58  57 1.58   1 2.86
  26  0.108  0.249  0.218-  50 1.54  53 1.54  58 1.58  64 1.58   6 2.87
  27  0.393  0.083  0.472-  67 1.53  56 1.54  61 1.59  59 1.59
  28  0.893  0.083  0.279-  52 1.54  55 1.54  62 1.58  60 1.59
  29  0.609  0.249  0.527-  49 1.53  70 1.55  79 1.58  73 1.59
  30  0.109  0.246  0.718-  66 1.54  69 1.55  80 1.57  74 1.58   2 2.87
  31  0.393  0.083  0.971-  51 1.54  72 1.54  75 1.58  77 1.58
  32  0.892  0.082  0.781-  71 1.53  68 1.54  76 1.59  78 1.59
  33  0.608  0.585  0.031-  86 1.53  97 1.54  89 1.59  95 1.59   9 2.87
  34  0.107  0.584  0.219-  82 1.54  85 1.54  96 1.58  90 1.58
  35  0.395  0.417  0.468-  99 1.53  88 1.55  91 1.58  93 1.59  11 2.86
  36  0.895  0.416  0.277-  87 1.54  84 1.54  92 1.58  94 1.59  16 2.81
  37  0.606  0.584  0.528- 102 1.54  81 1.54 111 1.58 105 1.59
  38  0.106  0.588  0.719-  98 1.54 101 1.55 106 1.58 112 1.58  10 2.87
  39  0.392  0.418  0.978-  83 1.53 107 1.56 104 1.57 109 1.57
  40  0.886  0.417  0.777- 103 1.51 100 1.54 108 1.59 110 1.59  12 2.86
  41  0.606  0.917  0.031- 129 1.54 118 1.54 127 1.58 121 1.59
  42  0.107  0.917  0.221- 114 1.54 117 1.54 122 1.58 128 1.58
  43  0.393  0.751  0.472- 131 1.53 120 1.54 123 1.59 125 1.59
  44  0.893  0.751  0.280- 116 1.54 119 1.54 126 1.59 124 1.59
  45  0.607  0.917  0.530- 113 1.54 134 1.54 143 1.58 137 1.58
  46  0.106  0.917  0.721- 130 1.54 133 1.54 138 1.58 144 1.58
  47  0.393  0.750  0.971- 115 1.54 136 1.54 141 1.58 139 1.58
  48  0.892  0.752  0.781- 135 1.53 132 1.54 140 1.59 142 1.59  20 2.87
  49  0.636  0.249  0.375-  29 1.53   1 1.94
  50  0.134  0.249  0.371-  26 1.54   2 1.93
  51  0.366  0.083  0.124-  31 1.54   3 1.93
  52  0.865  0.082  0.127-  28 1.54   4 1.94
  53  0.961  0.250  0.192-  26 1.54   1 1.96
  54  0.463  0.248  0.059-  25 1.54   6 1.98
  55  0.039  0.083  0.305-  28 1.54   3 1.97
  56  0.539  0.083  0.445-  27 1.54   8 1.97
  57  0.679  0.314  0.103-  25 1.58   1 2.20  12 2.22
  58  0.179  0.185  0.146-  26 1.58   3 2.18   6 2.22
  59  0.322  0.148  0.400-  27 1.59   2 2.16   3 2.23
  60  0.822  0.019  0.353-  28 1.59  17 2.18   8 2.19
  61  0.322  0.019  0.398-  27 1.59  18 2.17   3 2.21
  62  0.823  0.148  0.351-  28 1.58   1 2.16   8 2.24
  63  0.682  0.185  0.099-  25 1.58   4 2.17   1 2.20
  64  0.179  0.314  0.146-  26 1.58   6 2.20  11 2.20
  65  0.631  0.252  0.876-  25 1.55   5 1.98
  66  0.139  0.251  0.870-  30 1.54   6 1.94
  67  0.367  0.082  0.624-  27 1.53   7 1.95
  68  0.865  0.082  0.628-  32 1.54   8 1.94
  69  0.961  0.248  0.697-  30 1.55   5 1.95
  70  0.463  0.251  0.557-  29 1.55   2 2.01
  71  0.037  0.081  0.810-  32 1.53   7 1.99
  72  0.539  0.083  0.946-  31 1.54   4 1.96
  73  0.677  0.314  0.601-  29 1.59   5 2.27 145 2.28  16 2.30
  74  0.173  0.178  0.651-  30 1.58   7 2.07   2 2.36
  75  0.323  0.148  0.898-  31 1.58   6 2.19   7 2.24
  76  0.818  0.019  0.853-  32 1.59  21 2.17   4 2.19
  77  0.322  0.018  0.899-  31 1.58  22 2.17   7 2.21
  78  0.821  0.147  0.852-  32 1.59   5 2.11   4 2.24
  79  0.680  0.185  0.601-  29 1.58   8 2.18   5 2.20
  80  0.180  0.306  0.637-  30 1.57   2 2.06  15 2.36
  81  0.636  0.584  0.376-  37 1.54   9 1.94
  82  0.134  0.585  0.372-  34 1.54  10 1.93
  83  0.368  0.417  0.131-  39 1.53  11 1.92
  84  0.869  0.417  0.124-  36 1.54  12 1.92
  85  0.961  0.584  0.193-  34 1.54   9 1.96
  86  0.463  0.586  0.059-  33 1.53  14 1.99
  87  0.040  0.416  0.306-  36 1.54  11 1.96
  88  0.541  0.416  0.439-  35 1.55  16 1.97
  89  0.680  0.649  0.103-  33 1.59  20 2.17   9 2.18
  90  0.178  0.519  0.148-  34 1.58  11 2.18  14 2.22
  91  0.322  0.481  0.397-  35 1.58  10 2.17  11 2.19
  92  0.823  0.352  0.349-  36 1.58   1 2.18  16 2.20
  93  0.322  0.352  0.397-  35 1.59   2 2.16  11 2.20
  94  0.824  0.481  0.349-  36 1.59  16 2.12   9 2.21
  95  0.680  0.520  0.102-  33 1.59  12 2.14   9 2.22
  96  0.179  0.648  0.146-  34 1.58  19 2.17  14 2.23
  97  0.634  0.585  0.878-  33 1.54  13 1.94
  98  0.137  0.584  0.870-  38 1.54  14 1.94
  99  0.373  0.416  0.622-  35 1.53  15 2.06 145 2.27
 100  0.859  0.417  0.624-  40 1.54  16 1.92
 101  0.960  0.586  0.697-  38 1.55  13 1.96
 102  0.461  0.585  0.553-  37 1.54  10 1.98
 103  0.029  0.416  0.805-  40 1.51  15 1.99
 104  0.540  0.419  0.949-  39 1.57  12 1.98 145 2.30
 105  0.679  0.647  0.602-  37 1.59  13 2.18  24 2.19
 106  0.178  0.527  0.638-  38 1.58  10 2.07  15 2.25
 107  0.325  0.483  0.909-  39 1.56  14 2.08
 108  0.811  0.353  0.848-  40 1.59   5 2.19  12 2.23
 109  0.334  0.351  0.905-  39 1.57   6 2.13
 110  0.814  0.481  0.850-  40 1.59  12 2.17  13 2.19
 111  0.675  0.518  0.600-  37 1.58  16 2.15  13 2.28
 112  0.172  0.656  0.650-  38 1.58  23 2.07  10 2.34
 113  0.635  0.917  0.377-  45 1.54  17 1.93
 114  0.134  0.917  0.374-  42 1.54  18 1.93
 115  0.366  0.751  0.124-  47 1.54  19 1.93
 116  0.865  0.751  0.127-  44 1.54  20 1.94
 117  0.961  0.917  0.196-  42 1.54  17 1.97
 118  0.460  0.917  0.058-  41 1.54  22 1.97
 119  0.039  0.751  0.306-  44 1.54  19 1.97
 120  0.539  0.750  0.445-  43 1.54  24 1.97
 121  0.677  0.981  0.104-  41 1.59   4 2.14  17 2.22
 122  0.178  0.852  0.148-  42 1.58  19 2.18  22 2.21
 123  0.323  0.816  0.398-  43 1.59  18 2.15  19 2.23
 124  0.822  0.686  0.352-  44 1.59   9 2.14  24 2.23
 125  0.321  0.687  0.399-  43 1.59  10 2.18  19 2.20
 126  0.822  0.815  0.353-  44 1.59  17 2.16  24 2.21
 127  0.678  0.852  0.104-  41 1.58  20 2.16  17 2.21
 128  0.178  0.981  0.148-  42 1.58   3 2.17  22 2.22
 129  0.633  0.917  0.878-  41 1.54  21 1.94
 130  0.134  0.917  0.874-  46 1.54  22 1.94
 131  0.366  0.752  0.624-  43 1.53  23 1.95
 132  0.864  0.751  0.628-  48 1.54  24 1.93
 133  0.960  0.917  0.696-  46 1.54  21 1.97
 134  0.461  0.917  0.555-  45 1.54  18 1.97
 135  0.037  0.753  0.809-  48 1.53  23 1.99
 136  0.539  0.751  0.946-  47 1.54  20 1.96
 137  0.678  0.981  0.603-  45 1.58   8 2.15  21 2.22
 138  0.177  0.853  0.648-  46 1.58  23 2.16  18 2.21
 139  0.322  0.815  0.899-  47 1.58  22 2.16  23 2.22
 140  0.821  0.687  0.854-  48 1.59  13 2.16  20 2.21
 141  0.322  0.686  0.898-  47 1.58  14 2.18  23 2.23
 142  0.819  0.816  0.853-  48 1.59  21 2.14  20 2.20
 143  0.677  0.852  0.603-  45 1.58  24 2.16  21 2.21
 144  0.177  0.981  0.648-  46 1.58   7 2.15  18 2.22
 145  0.526  0.360  0.746-  99 2.27  73 2.28 104 2.30


IMPORTANT INFORMATION: All symmetrisations will be switched off!
NOSYMM: (Re-)initialisation of all symmetry stuff for point group C_1.


----------------------------------------------------------------------------------------

                                     Primitive cell                                     

  volume of cell :    1920.7920

  direct lattice vectors                    reciprocal lattice vectors
    10.406300000  0.000000000  0.000000000     0.096095634  0.000000000  0.000000000
     0.000000000 18.656100000  0.000000000     0.000000000  0.053601771  0.000000000
     0.000000000  0.000000000  9.893800000     0.000000000  0.000000000  0.101073400

  length of vectors
    10.406300000 18.656100000  9.893800000     0.096095634  0.053601771  0.101073400

  position of ions in fractional coordinates (direct lattice)
     0.782487999  0.248999245  0.253874584
     0.279658026  0.250429139  0.490705455
     0.219599546  0.082900561  0.244442744
     0.718053948  0.081529496  0.007302400
     0.783269983  0.246416264  0.756941654
     0.282792703  0.250862643  0.994495627
     0.218014819  0.081885299  0.744478669
     0.719392018  0.081726025  0.506020876
     0.782105569  0.586405028  0.254740347
     0.279456445  0.583703435  0.492341935
     0.219360167  0.417303205  0.246005539
     0.721248478  0.419482997  0.008452158
     0.780007446  0.585826178  0.756691624
     0.282501212  0.582777161  0.993081079
     0.208957929  0.419815435  0.736903259
     0.721651840  0.420790863  0.494900615
     0.781089934  0.916551936  0.256793109
     0.280458432  0.916597992  0.494132019
     0.219663957  0.749916397  0.244409866
     0.718455555  0.751293161  0.007058326
     0.779372072  0.916509549  0.757425822
     0.280473485  0.916525050  0.994541061
     0.217876353  0.751383617  0.744413718
     0.718831358  0.750940467  0.506808262
     0.607826883  0.249562140  0.030555080
     0.107511795  0.249440346  0.217860280
     0.392932500  0.083009152  0.471804280
     0.893256622  0.083045585  0.279464231
     0.608561581  0.248678153  0.527432966
     0.108644184  0.245665723  0.718274885
     0.392523305  0.083090863  0.971244034
     0.891937507  0.082169099  0.780826689
     0.607630671  0.584823964  0.030644463
     0.107292208  0.584212887  0.218936989
     0.394509366  0.416918511  0.468469743
     0.895072223  0.416486420  0.277363378
     0.606492527  0.583761193  0.528223914
     0.106472077  0.588296259  0.718534412
     0.392202179  0.418066112  0.978389706
     0.885658461  0.416717722  0.776966059
     0.605961153  0.916673852  0.030923570
     0.107064893  0.916759853  0.220956971
     0.392737356  0.750961013  0.471666390
     0.893404020  0.750890910  0.279901292
     0.606564957  0.916732467  0.529802325
     0.106059790  0.916848577  0.721147976
     0.392597225  0.750449848  0.971088003
     0.891833363  0.751538546  0.781149309
     0.635718090  0.248894000  0.375378645
     0.133632348  0.249148244  0.370603209
     0.365551637  0.082907116  0.124077009
     0.865251557  0.082175665  0.126989296
     0.961433992  0.249652452  0.191618877
     0.462837741  0.247717077  0.059380714
     0.039111150  0.083042063  0.305016329
     0.539069926  0.083370148  0.445236733
     0.679388018  0.313951535  0.102537553
     0.178588375  0.184996402  0.145961226
     0.322053044  0.147780783  0.399623641
     0.821995875  0.018859681  0.353305988
     0.321912634  0.018811330  0.397972501
     0.822606830  0.147815539  0.351292582
     0.681599961  0.185094103  0.099367549
     0.178549009  0.314237834  0.146421383
     0.630722662  0.251603673  0.875746172
     0.139137919  0.250635340  0.870057172
     0.366606133  0.081888763  0.624384415
     0.865084894  0.082406177  0.628066819
     0.961380507  0.248034261  0.697122594
     0.462673576  0.250641890  0.556576818
     0.036767381  0.080703047  0.809605899
     0.538753889  0.082704726  0.945992860
     0.676835191  0.313789440  0.601373939
     0.172840793  0.177876141  0.650952936
     0.322898176  0.147669849  0.898482577
     0.818249440  0.018527287  0.853376217
     0.321563920  0.018468110  0.898980658
     0.820769992  0.147367647  0.852287711
     0.679722250  0.184760374  0.601457348
     0.179892149  0.306332434  0.636873690
     0.636288807  0.583803512  0.376013821
     0.133689242  0.584710055  0.371606828
     0.368486684  0.416707484  0.131258746
     0.869345821  0.417059413  0.124466483
     0.961140473  0.584297408  0.192885812
     0.462643073  0.585751535  0.058902134
     0.040096535  0.416431634  0.305905659
     0.540518721  0.416302712  0.438551367
     0.680388207  0.648902116  0.103093204
     0.177617092  0.519123918  0.147989166
     0.321868297  0.481285144  0.397454955
     0.822723814  0.352301490  0.348845088
     0.322130524  0.352382633  0.396756544
     0.823524254  0.481284777  0.349226650
     0.679682362  0.520173052  0.102416823
     0.178528166  0.648435739  0.146426464
     0.633698123  0.585126255  0.877734309
     0.136887018  0.584018165  0.870354887
     0.373178404  0.416294235  0.621662397
     0.858769375  0.417360991  0.623850010
     0.959505363  0.585844487  0.696803031
     0.460609336  0.584825378  0.552604011
     0.028690075  0.415750353  0.804983315
     0.540023127  0.418635005  0.949036061
     0.678874582  0.647432275  0.602376704
     0.177946127  0.527200157  0.637974670
     0.325114806  0.483365335  0.908854624
     0.810562680  0.352603255  0.847586012
     0.333600260  0.350751123  0.904941141
     0.813515323  0.481271611  0.849813033
     0.674505009  0.518202730  0.600249435
     0.171991584  0.655519974  0.650153289
     0.634698495  0.916757494  0.377337088
     0.134246161  0.916854059  0.373635276
     0.365535705  0.750559669  0.123890640
     0.865422004  0.751254280  0.127479730
     0.960928036  0.916790509  0.195505594
     0.460372382  0.916693766  0.057583276
     0.039168114  0.750599631  0.305569732
     0.538953369  0.750098563  0.445416310
     0.677465932  0.981073203  0.103609293
     0.177876592  0.852336653  0.148220007
     0.322605698  0.815581199  0.398313556
     0.822346229  0.686249690  0.352358415
     0.320811406  0.686818046  0.398635633
     0.822160237  0.815070247  0.353444283
     0.677680977  0.852384205  0.103528860
     0.177824013  0.981263071  0.148299498
     0.632748160  0.916806557  0.878209746
     0.134295376  0.916767793  0.873554878
     0.366215606  0.751621885  0.624219678
     0.864475296  0.750824737  0.628379419
     0.959908709  0.916920273  0.696249723
     0.460801238  0.916942702  0.555431345
     0.036896313  0.753088465  0.809092954
     0.538826610  0.750692476  0.945958155
     0.677651229  0.981136906  0.602659849
     0.176902850  0.852520319  0.647822550
     0.321790695  0.815217133  0.898982714
     0.820768722  0.686943804  0.853700474
     0.322380810  0.686127658  0.898071942
     0.818841536  0.815714839  0.852986115
     0.677356607  0.852291582  0.602805950
     0.176840024  0.981276183  0.648050342
     0.526338461  0.359653015  0.745509506

  ion indices of the primitive-cell ions
   primitive index   ion index
                 1           1
                 2           2
                 3           3
                 4           4
                 5           5
                 6           6
                 7           7
                 8           8
                 9           9
                10          10
                11          11
                12          12
                13          13
                14          14
                15          15
                16          16
                17          17
                18          18
                19          19
                20          20
                21          21
                22          22
                23          23
                24          24
                25          25
                26          26
                27          27
                28          28
                29          29
                30          30
                31          31
                32          32
                33          33
                34          34
                35          35
                36          36
                37          37
                38          38
                39          39
                40          40
                41          41
                42          42
                43          43
                44          44
                45          45
                46          46
                47          47
                48          48
                49          49
                50          50
                51          51
                52          52
                53          53
                54          54
                55          55
                56          56
                57          57
                58          58
                59          59
                60          60
                61          61
                62          62
                63          63
                64          64
                65          65
                66          66
                67          67
                68          68
                69          69
                70          70
                71          71
                72          72
                73          73
                74          74
                75          75
                76          76
                77          77
                78          78
                79          79
                80          80
                81          81
                82          82
                83          83
                84          84
                85          85
                86          86
                87          87
                88          88
                89          89
                90          90
                91          91
                92          92
                93          93
                94          94
                95          95
                96          96
                97          97
                98          98
                99          99
               100         100
               101         101
               102         102
               103         103
               104         104
               105         105
               106         106
               107         107
               108         108
               109         109
               110         110
               111         111
               112         112
               113         113
               114         114
               115         115
               116         116
               117         117
               118         118
               119         119
               120         120
               121         121
               122         122
               123         123
               124         124
               125         125
               126         126
               127         127
               128         128
               129         129
               130         130
               131         131
               132         132
               133         133
               134         134
               135         135
               136         136
               137         137
               138         138
               139         139
               140         140
               141         141
               142         142
               143         143
               144         144
               145         145

----------------------------------------------------------------------------------------



 KPOINTS: KPOINTS created by Atomic Simulation Env

Automatic generation of k-mesh.
 Grid dimensions read from file:
 generate k-points for:    3    1    3

 Generating k-lattice:

  Cartesian coordinates                     Fractional coordinates (reciprocal lattice)
     0.032031878  0.000000000  0.000000000     0.333333333  0.000000000  0.000000000
     0.000000000  0.053601771  0.000000000     0.000000000  1.000000000  0.000000000
     0.000000000  0.000000000  0.033691133     0.000000000  0.000000000  0.333333333

  Length of vectors
     0.032031878  0.053601771  0.033691133

  Shift w.r.t. Gamma in fractional coordinates (k-lattice)
     0.000000000  0.000000000  0.000000000

 
 Subroutine IBZKPT returns following result:
 ===========================================
 
 Found      5 irreducible k-points:
 
 Following reciprocal coordinates:
            Coordinates               Weight
  0.000000  0.000000  0.000000      1.000000
  0.333333  0.000000  0.000000      2.000000
  0.000000  0.000000  0.333333      2.000000
  0.333333  0.000000  0.333333      2.000000
 -0.333333  0.000000  0.333333      2.000000
 
 Following cartesian coordinates:
            Coordinates               Weight
  0.000000  0.000000  0.000000      1.000000
  0.032032  0.000000  0.000000      2.000000
  0.000000  0.000000  0.033691      2.000000
  0.032032  0.000000  0.033691      2.000000
 -0.032032  0.000000  0.033691      2.000000
 


--------------------------------------------------------------------------------------------------------




 Dimension of arrays:
   k-points           NKPTS =      5   k-points in BZ     NKDIM =      5   number of bands    NBANDS=    696
   number of dos      NEDOS =    301   number of ions     NIONS =    145
   non local maximal  LDIM  =      6   non local SUM 2l+1 LMDIM =     18
   total plane-waves  NPLWV = 896000
   max r-space proj   IRMAX =   5954   max aug-charges    IRDMAX=  14393
   dimension x,y,z NGX =    80 NGY =  140 NGZ =   80
   dimension x,y,z NGXF=   160 NGYF=  280 NGZF=  160
   support grid    NGXF=   160 NGYF=  280 NGZF=  160
   ions per type =              24  24  96   1
   NGX,Y,Z   is equivalent  to a cutoff of  12.78, 12.48, 13.44 a.u.
   NGXF,Y,Z  is equivalent  to a cutoff of  25.56, 24.95, 26.88 a.u.

 SYSTEM =  unknown system                          
 POSCAR =  Fe P  O  Na                             

 Startparameter for this run:
   NWRITE =      2    write-flag & timer
   PREC   = accura    normal or accurate (medium, high low for compatibility)
   ISTART =      1    job   : 0-new  1-cont  2-samecut
   ICHARG =      0    charge: 1-file 2-atom 10-const
   ISPIN  =      2    spin polarized calculation?
   LNONCOLLINEAR =      F non collinear calculations
   LSORBIT =      F    spin-orbit coupling
   INIWAV =      1    electr: 0-lowe 1-rand  2-diag
   LASPH  =      T    aspherical Exc in radial PAW
 Electronic Relaxation 1
   ENCUT  =  520.0 eV  38.22 Ry    6.18 a.u.  19.35 34.69 18.40*2*pi/ulx,y,z
   ENINI  =  520.0     initial cutoff
   ENAUG  =  605.4 eV  augmentation charge cutoff
   NELM   =    300;   NELMIN=  8; NELMDL=  0     # of ELM steps 
   EDIFF  = 0.1E-05   stopping-criterion for ELM
   LREAL  =      T    real-space projection
   NLSPLINE    = F    spline interpolate recip. space projectors
   LCOMPAT=      F    compatible to vasp.4.4
   GGA_COMPAT  = T    GGA compatible to vasp.4.4-vasp.4.6
   LMAXPAW     = -100 max onsite density
   LMAXMIX     =    4 max onsite mixed and CHGCAR
   VOSKOWN=      0    Vosko Wilk Nusair interpolation
   ROPT   =   -0.00025  -0.00025  -0.00025  -0.00025
 Ionic relaxation
   EDIFFG = -.2E-01   stopping-criterion for IOM
   NSW    =      1    number of steps for IOM
   NBLOCK =      1;   KBLOCK =      1    inner block; outer block 
   IBRION =      2    ionic relax: 0-MD 1-quasi-New 2-CG
   NFREE  =      1    steps in history (QN), initial steepest desc. (CG)
   ISIF   =      2    stress and relaxation
   IWAVPR =     11    prediction:  0-non 1-charg 2-wave 3-comb
   ISYM   =      0    0-nonsym 1-usesym 2-fastsym
   LCORR  =      T    Harris-Foulkes like correction to forces

   POTIM  = 0.5000    time-step for ionic-motion
   TEIN   =    0.0    initial temperature
   TEBEG  =    0.0;   TEEND  =   0.0 temperature during run
   SMASS  =  -3.00    Nose mass-parameter (am)
   estimated Nose-frequenzy (Omega)   =  0.10E-29 period in steps = 0.13E+47 mass=  -0.247E-26a.u.
   SCALEE = 1.0000    scale energy and forces
   NPACO  =    256;   APACO  = 10.0  distance and # of slots for P.C.
   PSTRESS=    0.0 pullay stress

  Mass of Ions in am
   POMASS =  55.85 30.97 16.00 22.99
  Ionic Valenz
   ZVAL   =  14.00  5.00  6.00  7.00
  Atomic Wigner-Seitz radii
   RWIGS  =  -1.00 -1.00 -1.00 -1.00
  virtual crystal weights 
   VCA    =   1.00  1.00  1.00  1.00
   NELECT =    1039.0000    total number of electrons
   NUPDOWN=     119.0000    fix difference up-down

 DOS related values:
   EMIN   =  10.00;   EMAX   =-10.00  energy-range for DOS
   EFERMI =   0.00;   METHOD = LEGACY      
   ISMEAR =     0;   SIGMA  =   0.05  broadening in eV -4-tet -1-fermi 0-gaus

 Electronic relaxation 2 (details)
   IALGO  =     58    algorithm
   LDIAG  =      T    sub-space diagonalisation (order eigenvalues)
   LSUBROT=      F    optimize rotation matrix (better conditioning)
   TURBO    =      0    0=normal 1=particle mesh
   IRESTART =      0    0=no restart 2=restart with 2 vectors
   NREBOOT  =      0    no. of reboots
   NMIN     =      0    reboot dimension
   EREF     =   0.00    reference energy to select bands
   IMIX   =      4    mixing-type and parameters
     AMIX     =   0.40;   BMIX     =  1.00
     AMIX_MAG =   1.60;   BMIX_MAG =  1.00
     AMIN     =   0.10
     WC   =   100.;   INIMIX=   1;  MIXPRE=   1;  MAXMIX= -45

 Intra band minimization:
   WEIMIN = 0.0010     energy-eigenvalue tresh-hold
   EBREAK =  0.36E-09  absolut break condition
   DEPER  =   0.30     relativ break condition  

   TIME   =   0.05     timestep for ELM

  volume/ion in A,a.u.               =      13.25        89.39
  Fermi-wavevector in a.u.,A,eV,Ry     =   1.333890  2.520686 24.208324  1.779262
  Thomas-Fermi vector in A             =   2.462713

 Write flags
   LWAVE        =      T    write WAVECAR
   LDOWNSAMPLE  =      F    k-point downsampling of WAVECAR
   LCHARG       =      T    write CHGCAR
   LVTOT        =      F    write LOCPOT, total local potential
   LVHAR        =      F    write LOCPOT, Hartree potential only
   LELF         =      F    write electronic localiz. function (ELF)
   LORBIT       =     12    0 simple, 1 ext, 2 COOP (PROOUT), +10 PAW based schemes


 Dipole corrections
   LMONO  =      F    monopole corrections only (constant potential shift)
   LDIPOL =      F    correct potential (dipole corrections)
   IDIPOL =      0    1-x, 2-y, 3-z, 4-all directions 
   EPSILON=  1.0000000 bulk dielectric constant

 LDA+U is selected, type is set to LDAUTYPE =  2
   angular momentum for each species LDAUL =     2   -1   -1   -1
   U (eV)           for each species LDAUU =   5.3  0.0  0.0  0.0
   J (eV)           for each species LDAUJ =   0.0  0.0  0.0  0.0
 Exchange correlation treatment:
   GGA     =    PE    GGA type
   LEXCH   =     8    internal setting for exchange type
   LIBXC   =     F    Libxc                    
   VOSKOWN =     0    Vosko Wilk Nusair interpolation
   LHFCALC =     F    Hartree Fock is set to
   LHFONE  =     F    Hartree Fock one center treatment
   AEXX    =    0.0000 exact exchange contribution

 Linear response parameters
   LEPSILON=     F    determine dielectric tensor
   LRPA    =     F    only Hartree local field effects (RPA)
   LNABLA  =     F    use nabla operator in PAW spheres
   LVEL    =     F    velocity operator in full k-point grid
   CSHIFT  =0.1000    complex shift for real part using Kramers Kronig
   OMEGAMAX=  -1.0    maximum frequency
   DEG_THRESHOLD= 0.2000000E-02 threshold for treating states as degnerate
   RTIME   =   -0.100 relaxation time in fs
  (WPLASMAI=    0.000 imaginary part of plasma frequency in eV, 0.658/RTIME)
   DFIELD  = 0.0000000 0.0000000 0.0000000 field for delta impulse in time

  Optional k-point grid parameters
   LKPOINTS_OPT  =     F    use optional k-point grid
   KPOINTS_OPT_MODE=     1    mode for optional k-point grid

 Orbital magnetization related:
   ORBITALMAG=     F  switch on orbital magnetization
   LCHIMAG   =     F  perturbation theory with respect to B field
   DQ        =  0.001000  dq finite difference perturbation B field
   LLRAUG    =     F  two centre corrections for induced B field
   LBONE     =     F  B-component reconstruction in AE one-centre
   LVGVCALC  =     T  calculate vGv susceptibility
   LVGVAPPL  =     F  apply vGv susceptibility instead of pGv for G=0

 Random number generation:
   RANDOM_GENERATOR = DEFAULT
   PCG_SEED         = not used


--------------------------------------------------------------------------------------------------------


 conjugate gradient relaxation of ions
 charge density and potential will be updated during run
 spin polarized calculation
 Conjugate gradient for all bands (Freysoldt, et al. PRB 79, 241103 (2009))
 preconditioned conjugated gradient                                        
 perform sub-space diagonalisation
    before iterative eigenvector-optimisation
 modified Broyden-mixing scheme, WC =      100.0
 initial mixing is a Kerker type mixing with AMIX =  0.4000 and BMIX =      1.0000
 Hartree-type preconditioning will be used
 using additional bands          176
 real space projection scheme for non local part
 use partial core corrections
 no Harris-corrections to forces 
 use gradient corrections 
 use of overlap-Matrix (Vanderbilt PP)
 Gauss-broadening in eV      SIGMA  =   0.05


--------------------------------------------------------------------------------------------------------


  energy-cutoff  :      520.00
  volume of cell :     1920.79
      direct lattice vectors                 reciprocal lattice vectors
    10.406300000  0.000000000  0.000000000     0.096095634  0.000000000  0.000000000
     0.000000000 18.656100000  0.000000000     0.000000000  0.053601771  0.000000000
     0.000000000  0.000000000  9.893800000     0.000000000  0.000000000  0.101073400

  length of vectors
    10.406300000 18.656100000  9.893800000     0.096095634  0.053601771  0.101073400



 old parameters found on file WAVECAR:
  energy-cutoff  :      520.00
  volume of cell :     1920.79
      direct lattice vectors                 reciprocal lattice vectors
    10.406300000  0.000000000  0.000000000     0.096095634  0.000000000  0.000000000
     0.000000000 18.656100000  0.000000000     0.000000000  0.053601771  0.000000000
     0.000000000  0.000000000  9.893800000     0.000000000  0.000000000  0.101073400

  length of vectors


 k-points in units of 2pi/SCALE and weight: KPOINTS created by Atomic Simulation Env
   0.00000000  0.00000000  0.00000000       0.111
   0.03203188  0.00000000  0.00000000       0.222
   0.00000000  0.00000000  0.03369113       0.222
   0.03203188  0.00000000  0.03369113       0.222
  -0.03203188  0.00000000  0.03369113       0.222

 k-points in reciprocal lattice and weights: KPOINTS created by Atomic Simulation Env
   0.00000000  0.00000000  0.00000000       0.111
   0.33333333  0.00000000  0.00000000       0.222
   0.00000000  0.00000000  0.33333333       0.222
   0.33333333  0.00000000  0.33333333       0.222
  -0.33333333  0.00000000  0.33333333       0.222

 position of ions in fractional coordinates (direct lattice) 
   0.78248800  0.24899925  0.25387458
   0.27965803  0.25042914  0.49070546
   0.21959955  0.08290056  0.24444274
   0.71805395  0.08152950  0.00730240
   0.78326998  0.24641626  0.75694165
   0.28279270  0.25086264  0.99449563
   0.21801482  0.08188530  0.74447867
   0.71939202  0.08172602  0.50602088
   0.78210557  0.58640503  0.25474035
   0.27945644  0.58370343  0.49234193
   0.21936017  0.41730321  0.24600554
   0.72124848  0.41948300  0.00845216
   0.78000745  0.58582618  0.75669162
   0.28250121  0.58277716  0.99308108
   0.20895793  0.41981544  0.73690326
   0.72165184  0.42079086  0.49490061
   0.78108993  0.91655194  0.25679311
   0.28045843  0.91659799  0.49413202
   0.21966396  0.74991640  0.24440987
   0.71845556  0.75129316  0.00705833
   0.77937207  0.91650955  0.75742582
   0.28047349  0.91652505  0.99454106
   0.21787635  0.75138362  0.74441372
   0.71883136  0.75094047  0.50680826
   0.60782688  0.24956214  0.03055508
   0.10751179  0.24944035  0.21786028
   0.39293250  0.08300915  0.47180428
   0.89325662  0.08304558  0.27946423
   0.60856158  0.24867815  0.52743297
   0.10864418  0.24566572  0.71827489
   0.39252331  0.08309086  0.97124403
   0.89193751  0.08216910  0.78082669
   0.60763067  0.58482396  0.03064446
   0.10729221  0.58421289  0.21893699
   0.39450937  0.41691851  0.46846974
   0.89507222  0.41648642  0.27736338
   0.60649253  0.58376119  0.52822391
   0.10647208  0.58829626  0.71853441
   0.39220218  0.41806611  0.97838971
   0.88565846  0.41671772  0.77696606
   0.60596115  0.91667385  0.03092357
   0.10706489  0.91675985  0.22095697
   0.39273736  0.75096101  0.47166639
   0.89340402  0.75089091  0.27990129
   0.60656496  0.91673247  0.52980233
   0.10605979  0.91684858  0.72114798
   0.39259723  0.75044985  0.97108800
   0.89183336  0.75153855  0.78114931
   0.63571809  0.24889400  0.37537865
   0.13363235  0.24914824  0.37060321
   0.36555164  0.08290712  0.12407701
   0.86525156  0.08217566  0.12698930
   0.96143399  0.24965245  0.19161888
   0.46283774  0.24771708  0.05938071
   0.03911115  0.08304206  0.30501633
   0.53906993  0.08337015  0.44523673
   0.67938802  0.31395154  0.10253755
   0.17858838  0.18499640  0.14596123
   0.32205304  0.14778078  0.39962364
   0.82199587  0.01885968  0.35330599
   0.32191263  0.01881133  0.39797250
   0.82260683  0.14781554  0.35129258
   0.68159996  0.18509410  0.09936755
   0.17854901  0.31423783  0.14642138
   0.63072266  0.25160367  0.87574617
   0.13913792  0.25063534  0.87005717
   0.36660613  0.08188876  0.62438442
   0.86508489  0.08240618  0.62806682
   0.96138051  0.24803426  0.69712259
   0.46267358  0.25064189  0.55657682
   0.03676738  0.08070305  0.80960590
   0.53875389  0.08270473  0.94599286
   0.67683519  0.31378944  0.60137394
   0.17284079  0.17787614  0.65095294
   0.32289818  0.14766985  0.89848258
   0.81824944  0.01852729  0.85337622
   0.32156392  0.01846811  0.89898066
   0.82076999  0.14736765  0.85228771
   0.67972225  0.18476037  0.60145735
   0.17989215  0.30633243  0.63687369
   0.63628881  0.58380351  0.37601382
   0.13368924  0.58471006  0.37160683
   0.36848668  0.41670748  0.13125875
   0.86934582  0.41705941  0.12446648
   0.96114047  0.58429741  0.19288581
   0.46264307  0.58575154  0.05890213
   0.04009654  0.41643163  0.30590566
   0.54051872  0.41630271  0.43855137
   0.68038821  0.64890212  0.10309320
   0.17761709  0.51912392  0.14798917
   0.32186830  0.48128514  0.39745495
   0.82272381  0.35230149  0.34884509
   0.32213052  0.35238263  0.39675654
   0.82352425  0.48128478  0.34922665
   0.67968236  0.52017305  0.10241682
   0.17852817  0.64843574  0.14642646
   0.63369812  0.58512626  0.87773431
   0.13688702  0.58401817  0.87035489
   0.37317840  0.41629423  0.62166240
   0.85876938  0.41736099  0.62385001
   0.95950536  0.58584449  0.69680303
   0.46060934  0.58482538  0.55260401
   0.02869007  0.41575035  0.80498332
   0.54002313  0.41863501  0.94903606
   0.67887458  0.64743227  0.60237670
   0.17794613  0.52720016  0.63797467
   0.32511481  0.48336534  0.90885462
   0.81056268  0.35260325  0.84758601
   0.33360026  0.35075112  0.90494114
   0.81351532  0.48127161  0.84981303
   0.67450501  0.51820273  0.60024944
   0.17199158  0.65551997  0.65015329
   0.63469849  0.91675749  0.37733709
   0.13424616  0.91685406  0.37363528
   0.36553570  0.75055967  0.12389064
   0.86542200  0.75125428  0.12747973
   0.96092804  0.91679051  0.19550559
   0.46037238  0.91669377  0.05758328
   0.03916811  0.75059963  0.30556973
   0.53895337  0.75009856  0.44541631
   0.67746593  0.98107320  0.10360929
   0.17787659  0.85233665  0.14822001
   0.32260570  0.81558120  0.39831356
   0.82234623  0.68624969  0.35235841
   0.32081141  0.68681805  0.39863563
   0.82216024  0.81507025  0.35344428
   0.67768098  0.85238421  0.10352886
   0.17782401  0.98126307  0.14829950
   0.63274816  0.91680656  0.87820975
   0.13429538  0.91676779  0.87355488
   0.36621561  0.75162188  0.62421968
   0.86447530  0.75082474  0.62837942
   0.95990871  0.91692027  0.69624972
   0.46080124  0.91694270  0.55543134
   0.03689631  0.75308846  0.80909295
   0.53882661  0.75069248  0.94595815
   0.67765123  0.98113691  0.60265985
   0.17690285  0.85252032  0.64782255
   0.32179069  0.81521713  0.89898271
   0.82076872  0.68694380  0.85370047
   0.32238081  0.68612766  0.89807194
   0.81884154  0.81571484  0.85298611
   0.67735661  0.85229158  0.60280595
   0.17684002  0.98127618  0.64805034
   0.52633846  0.35965301  0.74550951

 position of ions in cartesian coordinates  (Angst):
   8.14280487  4.64535482  2.51178436
   2.91020531  4.67203105  4.85494163
   2.28521876  1.54660115  2.41846762
   7.47228480  1.52102242  0.07224849
   8.15094242  4.59716646  7.48902933
   2.94282571  4.68011856  9.83934083
   2.26872761  1.52766033  7.36572305
   7.48620916  1.52468889  5.00646935
   8.13882518 10.94003085  2.52035005
   2.90810760 10.88962965  4.87113263
   2.28272771  7.78525033  2.43392960
   7.50552803  7.82591674  0.08362396
   8.11699149 10.92923177  7.48655559
   2.93979236 10.87234899  9.82534558
   2.17447890  7.83211874  7.29077347
   7.50972554  7.85031642  4.89644770
   8.12825618 17.09928456  2.54065966
   2.91853458 17.10014380  4.88884337
   2.28588903 13.99051529  2.41814234
   7.47646404 14.01620033  0.06983366
   8.11037959 17.09849379  7.49381960
   2.91869123 17.09878299  9.83979035
   2.26728669 14.01788790  7.36508044
   7.48037476 14.00962044  5.01425958
   6.32522890  4.65585623  0.30230585
   1.11879999  4.65358405  2.15546603
   4.08897348  1.54862704  4.66793718
   9.29549639  1.54930673  2.76496321
   6.33287438  4.63936449  5.21831628
   1.13058397  4.58316430  7.10646806
   4.08471527  1.55015145  9.60929422
   9.28176928  1.53295494  7.72534309
   6.32318705 10.91053436  0.30319018
   1.11651491 10.89913404  2.16611878
   4.10538281  7.77807343  4.63494594
   9.31439007  7.77001229  2.74417779
   6.31134319 10.89070719  5.22614176
   1.10798038 10.97531384  7.10903576
   4.08137353  7.79948319  9.67999207
   9.21642765  7.77432749  7.68714679
   6.30581355 17.10155905  0.30595162
   1.11414939 17.10316349  2.18610408
   4.08694275 14.01000376  4.66657293
   9.29703025 14.00869590  2.76928740
   6.31209691 17.10265257  5.24175825
   1.10368999 17.10481874  7.13489384
   4.08548451 14.00046740  9.60775049
   9.28068553 14.02077827  7.72853503
   6.61547316  4.64339135  3.71392124
   1.39061831  4.64813456  3.66667403
   3.80404000  1.54672345  1.22759311
   9.00406728  1.53307742  1.25640669
  10.00497055  4.65754110  1.89583885
   4.81642839  4.62143457  0.58750091
   0.40700236  1.54924104  3.01777056
   5.60972337  1.55536181  4.40508319
   7.06991553  5.85711124  1.01448604
   1.85844421  3.45131137  1.44411118
   3.35138059  2.75701306  3.95379638
   8.55393567  0.35184810  3.49553878
   3.34991944  0.35094605  3.93746033
   8.56029346  2.75766147  3.47561855
   7.09293367  3.45313409  0.98312266
   1.85803455  5.86245245  1.44866388
   6.56348924  4.69394328  8.66445748
   1.44791093  4.67587797  8.60817165
   3.81501340  1.52772495  6.17753453
   9.00233294  1.53737789  6.21396750
  10.00441397  4.62735198  6.89719152
   4.81472004  4.67600016  5.50665972
   0.38261240  1.50560411  8.01007885
   5.60643460  1.54294763  9.35946416
   7.04335005  5.85408717  5.94987348
   1.79863315  3.31847507  6.44039816
   3.36017529  2.75494347  8.88940692
   8.51494915  0.34564691  8.44313362
   3.34629062  0.34454290  8.89433484
   8.54117877  2.74930556  8.43236416
   7.07339365  3.44690801  5.95069871
   1.87201168  5.71496853  6.30110091
   6.62141222 10.89149669  3.72020554
   1.39121036 10.90840926  3.67660363
   3.83458298  7.77413648  1.29864778
   9.04667341  7.78070212  1.23144649
  10.00191610 10.90071087  1.90837364
   4.81440261 10.92783922  0.58276593
   0.41725657  7.76899021  3.02656941
   5.62479996  7.76658502  4.33893952
   7.08032380 12.10598276  1.01998354
   1.84833674  9.68482773  1.46417521
   3.34945806  8.97890377  3.93233983
   8.56151083  6.57257183  3.45140353
   3.35218688  6.57408563  3.92542989
   8.56984044  8.97889692  3.45517863
   7.07297856  9.70440048  1.01329157
   1.85781766 12.09728200  1.44871415
   6.59445278 10.91617394  8.68412771
   1.42448738 10.89550129  8.61111718
   3.88340642  7.76642687  6.15060342
   8.93661175  7.78632838  6.17224723
   9.98490066 10.92957333  6.89402983
   4.79323894 10.91056073  5.46735356
   0.29855753  7.75628016  7.96434392
   5.61964267  7.81009652  9.38957298
   7.06457256 12.07856126  5.95979463
   1.85176078  9.83549885  6.31199379
   3.38324220  9.01771203  8.99202588
   8.43495842  6.57820158  8.38584648
   3.47154438  6.54364802  8.95330666
   8.46568450  8.97865131  8.40788019
   7.01910147  9.66764196  5.93874786
   1.78979602 12.22944618  6.43248661
   6.60486295 17.10311948  3.73329768
   1.39700582 17.10492102  3.69667269
   3.80387420 14.00251625  1.22574922
   9.00584100 14.01547496  1.26125895
   9.99970542 17.10373541  1.93429324
   4.79077312 17.10193057  0.56971742
   0.40759514 14.00326177  3.02324582
   5.60851044 13.99391380  4.40685989
   7.04991373 18.30299978  1.02508962
   1.85103718 15.90127783  1.46645910
   3.35713167 15.21556441  3.94083466
   8.55758156 12.80274285  3.48616368
   3.33845974 12.81334615  3.94402122
   8.55564608 15.20603204  3.49690704
   7.05215155 15.90216497  1.02429383
   1.85049003 18.30654199  1.46724557
   6.58456717 17.10403481  8.68883159
   1.39751798 17.10331162  8.64277725
   3.81094946 14.02233305  6.17590465
   8.99598927 14.00746137  6.21706030
   9.98909800 17.10615631  6.88855551
   4.79523593 17.10657474  5.49532664
   0.38395410 14.04969370  8.00500387
   5.60719135 14.00499391  9.35912079
   7.05184198 18.30418823  5.96259601
   1.84090412 15.90470433  6.40942674
   3.34865051 15.20877236  8.89435518
   8.54116555 12.81569230  8.44634174
   3.35479142 12.80046620  8.88534418
   8.52111067 15.21805762  8.43927402
   7.04877606 15.90043699  5.96404151
   1.84025034 18.30678659  6.41168048
   5.47723593  6.70972261  7.37592195



--------------------------------------------------------------------------------------------------------


 k-point   1 :   0.0000 0.0000 0.0000  plane waves:   51751
 k-point   2 :   0.3333 0.0000 0.0000  plane waves:   51719
 k-point   3 :   0.0000 0.0000 0.3333  plane waves:   51701
 k-point   4 :   0.3333 0.0000 0.3333  plane waves:   51716
 k-point   5 :  -0.3333 0.0000 0.3333  plane waves:   51716

 maximum and minimum number of plane-waves per node :     12949    12909

 maximum number of plane-waves:     51751
 maximum index in each direction: 
   IXMAX=   19   IYMAX=   34   IZMAX=   18
   IXMIN=  -19   IYMIN=  -34   IZMIN=  -18


 real space projection operators:
  total allocation   :      41634.84 KBytes
  max/ min on nodes  :      10436.78      10367.41


 parallel 3D FFT for wavefunctions:
    minimum data exchange during FFTs selected (reduces bandwidth)
 parallel 3D FFT for charge:
    minimum data exchange during FFTs selected (reduces bandwidth)


 total amount of memory used by VASP MPI-rank0   280276. kBytes
=======================================================================

   base      :      30000. kBytes
   nonlr-proj:      27458. kBytes
   fftplans  :       9556. kBytes
   grid      :      26700. kBytes
   one-center:       1150. kBytes
   wavefun   :     185412. kBytes

     INWAV:  cpu time     39.2342: real time     78.0459
 Broyden mixing: mesh for mixing (old mesh)
   NGX = 39   NGY = 69   NGZ = 37
  (NGX  =160   NGY  =280   NGZ  =160)
  gives a total of  99567 points

 charge density for first step will be calculated from the start-wavefunctions


--------------------------------------------------------------------------------------------------------


 Maximum index for non-local projection operator         1440
 Maximum index for augmentation-charges          698 (set IRDMAX)


--------------------------------------------------------------------------------------------------------


 initial charge from wavefunction
 First call to EWALD:  gamma=   0.143
 Maximum number of real-space cells 3x 2x 3
 Maximum number of reciprocal cells 2x 4x 2

    FEWALD:  cpu time      0.0059: real time      0.0060


--------------------------------------- Ionic step        1  -------------------------------------------




--------------------------------------- Iteration      1(   1)  ---------------------------------------


    POTLOK:  cpu time      0.1157: real time      0.1166
    SETDIJ:  cpu time      0.4458: real time      0.4485
    TRIAL :  cpu time      5.1516: real time      5.1958
    CORREC:  cpu time      9.7893: real time      9.8646
    CHARGE:  cpu time      0.1864: real time      0.1886
    --------------------------------------------
      LOOP:  cpu time     15.7360: real time     15.8712

 eigenvalue-minimisations  :     0
 total energy-change (2. order) :-0.1017219E+04  (-0.1045887E-01)
 number of electron    1039.0000080 magnetization     119.0000026
 augmentation part      257.1459326 magnetization      80.7031499

 Free energy of the ion-electron system (eV)
  ---------------------------------------------------
  alpha Z        PSCENC =      2648.81395470
  Ewald energy   TEWEN  =    -57958.03034503
  -Hartree energ DENC   =    -40769.60819830
  -exchange      EXHF   =         0.00000000
  -V(xc)+E(xc)   XCENC  =      4587.10528803
  PAW double counting   =    154054.23971349  -156114.94682949
  entropy T*S    EENTRO =        -0.00000000
  eigenvalues    EBANDS =    -12940.23365390
  atomic energy  EATOM  =    105475.44126576
  ---------------------------------------------------
  free energy    TOTEN  =     -1017.21880474 eV

  energy without entropy =    -1017.21880474  energy(sigma->0) =    -1017.21880474


--------------------------------------------------------------------------------------------------------




--------------------------------------- Iteration      1(   2)  ---------------------------------------


    POTLOK:  cpu time      0.1095: real time      0.1105
    SETDIJ:  cpu time      0.4421: real time      0.4449
    TRIAL :  cpu time      5.1474: real time      5.1908
    CORREC:  cpu time     13.6128: real time     13.7195
    CHARGE:  cpu time      0.1846: real time      0.1866
    --------------------------------------------
      LOOP:  cpu time     19.5079: real time     19.6639

 eigenvalue-minimisations  :     0
 total energy-change (2. order) :-0.2111100E-01  (-0.3141087E-03)
 number of electron    1039.0000080 magnetization     119.0000026
 augmentation part      257.1473079 magnetization      80.7034570

 Free energy of the ion-electron system (eV)
  ---------------------------------------------------
  alpha Z        PSCENC =      2648.81395470
  Ewald energy   TEWEN  =    -57958.03034503
  -Hartree energ DENC   =    -40769.12228830
  -exchange      EXHF   =         0.00000000
  -V(xc)+E(xc)   XCENC  =      4587.10028456
  PAW double counting   =    154052.63679499  -156113.33586367
  entropy T*S    EENTRO =        -0.00000000
  eigenvalues    EBANDS =    -12940.74371875
  atomic energy  EATOM  =    105475.44126576
  ---------------------------------------------------
  free energy    TOTEN  =     -1017.23991574 eV

  energy without entropy =    -1017.23991574  energy(sigma->0) =    -1017.23991574


--------------------------------------------------------------------------------------------------------




--------------------------------------- Iteration      1(   3)  ---------------------------------------


    POTLOK:  cpu time      0.1090: real time      0.1098
    SETDIJ:  cpu time      0.4431: real time      0.4456
    TRIAL :  cpu time      5.1095: real time      5.1524
    CORREC:  cpu time      2.4621: real time      2.4819
    CHARGE:  cpu time      0.1864: real time      0.1889
    --------------------------------------------
      LOOP:  cpu time      8.3110: real time      8.3793

 eigenvalue-minimisations  :     0
 total energy-change (2. order) :-0.1377415E-01  (-0.1733854E-02)
 number of electron    1039.0000080 magnetization     119.0000026
 augmentation part      257.1475342 magnetization      80.7033570

 Free energy of the ion-electron system (eV)
  ---------------------------------------------------
  alpha Z        PSCENC =      2648.81395470
  Ewald energy   TEWEN  =    -57958.03034503
  -Hartree energ DENC   =    -40768.70227612
  -exchange      EXHF   =         0.00000000
  -V(xc)+E(xc)   XCENC  =      4587.10173217
  PAW double counting   =    154051.35817073  -156112.08882456
  entropy T*S    EENTRO =        -0.00000000
  eigenvalues    EBANDS =    -12941.14736754
  atomic energy  EATOM  =    105475.44126576
  ---------------------------------------------------
  free energy    TOTEN  =     -1017.25368989 eV

  energy without entropy =    -1017.25368989  energy(sigma->0) =    -1017.25368989


--------------------------------------------------------------------------------------------------------




--------------------------------------- Iteration      1(   4)  ---------------------------------------


    POTLOK:  cpu time      0.1197: real time      0.1208
    SETDIJ:  cpu time      0.4331: real time      0.4358
    TRIAL :  cpu time      5.1379: real time      5.1811
    CORREC:  cpu time      2.4466: real time      2.4660
    CHARGE:  cpu time      0.9011: real time      0.9081
    --------------------------------------------
      LOOP:  cpu time      9.0405: real time      9.1138

 eigenvalue-minimisations  :     0
 total energy-change (2. order) :-0.1734224E-02  (-0.1103210E-02)
 number of electron    1039.0000080 magnetization     119.0000026
 augmentation part      257.1473068 magnetization      80.7030765

 Free energy of the ion-electron system (eV)
  ---------------------------------------------------
  alpha Z        PSCENC =      2648.81395470
  Ewald energy   TEWEN  =    -57958.03034503
  -Hartree energ DENC   =    -40768.82054838
  -exchange      EXHF   =         0.00000000
  -V(xc)+E(xc)   XCENC  =      4587.10453748
  PAW double counting   =    154051.42878559  -156112.16175065
  entropy T*S    EENTRO =        -0.00000000
  eigenvalues    EBANDS =    -12941.03132359
  atomic energy  EATOM  =    105475.44126576
  ---------------------------------------------------
  free energy    TOTEN  =     -1017.25542411 eV

  energy without entropy =    -1017.25542411  energy(sigma->0) =    -1017.25542411


--------------------------------------------------------------------------------------------------------




--------------------------------------- Iteration      1(   5)  ---------------------------------------


    POTLOK:  cpu time      3.5142: real time      3.5369
    SETDIJ:  cpu time      0.0092: real time      0.0092
    TRIAL :  cpu time      5.1045: real time      5.1513
    CORREC:  cpu time      2.4628: real time      2.4818
    CHARGE:  cpu time      0.1844: real time      0.1869
    --------------------------------------------
      LOOP:  cpu time     11.2765: real time     11.3675

 eigenvalue-minimisations  :     0
 total energy-change (2. order) :-0.1103723E-02  (-0.4454730E-03)
 number of electron    1039.0000080 magnetization     119.0000026
 augmentation part      257.1469891 magnetization      80.7028218

 Free energy of the ion-electron system (eV)
  ---------------------------------------------------
  alpha Z        PSCENC =      2648.81395470
  Ewald energy   TEWEN  =    -57958.03034503
  -Hartree energ DENC   =    -40769.01801519
  -exchange      EXHF   =         0.00000000
  -V(xc)+E(xc)   XCENC  =      4587.10560892
  PAW double counting   =    154051.51180395  -156112.23280961
  entropy T*S    EENTRO =        -0.00000000
  eigenvalues    EBANDS =    -12940.84799134
  atomic energy  EATOM  =    105475.44126576
  ---------------------------------------------------
  free energy    TOTEN  =     -1017.25652784 eV

  energy without entropy =    -1017.25652784  energy(sigma->0) =    -1017.25652784


--------------------------------------------------------------------------------------------------------




--------------------------------------- Iteration      1(   6)  ---------------------------------------


    POTLOK:  cpu time      0.1089: real time      0.1101
    SETDIJ:  cpu time      0.4424: real time      0.4451
    TRIAL :  cpu time      5.1135: real time      5.1571
    CORREC:  cpu time      2.4411: real time      2.4601
    CHARGE:  cpu time      0.1864: real time      0.1883
    --------------------------------------------
      LOOP:  cpu time      8.2937: real time      8.3730

 eigenvalue-minimisations  :     0
 total energy-change (2. order) :-0.4452587E-03  (-0.2667263E-03)
 number of electron    1039.0000080 magnetization     119.0000026
 augmentation part      257.1469518 magnetization      80.7026753

 Free energy of the ion-electron system (eV)
  ---------------------------------------------------
  alpha Z        PSCENC =      2648.81395470
  Ewald energy   TEWEN  =    -57958.03034503
  -Hartree energ DENC   =    -40769.05251562
  -exchange      EXHF   =         0.00000000
  -V(xc)+E(xc)   XCENC  =      4587.10335921
[...]
      0.41726      7.76899      3.02657         0.002713     -0.000007     -0.008823
      5.62480      7.76659      4.33894        -0.003360     -0.004956     -0.013066
      7.08032     12.10598      1.01998        -0.002038      0.004919      0.005364
      1.84834      9.68483      1.46418         0.003636      0.002552      0.002811
      3.34946      8.97890      3.93234         0.003641     -0.010666      0.016805
      8.56151      6.57257      3.45140        -0.002764     -0.001211     -0.009554
      3.35219      6.57409      3.92543         0.009984      0.006409      0.003216
      8.56984      8.97890      3.45518        -0.003896     -0.000300     -0.001835
      7.07298      9.70440      1.01329        -0.000888      0.001943      0.000470
      1.85782     12.09728      1.44871        -0.004962      0.004308      0.000298
      6.59445     10.91617      8.68413         0.002228      0.003470      0.000341
      1.42449     10.89550      8.61112        -0.002228      0.002283     -0.000921
      3.88341      7.76643      6.15060         0.019801     -0.005880     -0.007017
      8.93661      7.78633      6.17225         0.007096      0.007203     -0.005637
      9.98490     10.92957      6.89403        -0.000967      0.002985     -0.003308
      4.79324     10.91056      5.46735        -0.002550      0.003877     -0.001201
      0.29856      7.75628      7.96434         0.003181     -0.002737     -0.003622
      5.61964      7.81010      9.38957        -0.002823      0.011980     -0.016780
      7.06457     12.07856      5.95979        -0.001898      0.010358      0.000433
      1.85176      9.83550      6.31199         0.000815     -0.000862      0.001661
      3.38324      9.01771      8.99203        -0.007471      0.002698     -0.005054
      8.43496      6.57820      8.38585         0.008297      0.001729     -0.003572
      3.47154      6.54365      8.95331         0.015746      0.003516     -0.010876
      8.46568      8.97865      8.40788         0.013200      0.001527      0.001688
      7.01910      9.66764      5.93875         0.010108      0.011419     -0.003084
      1.78980     12.22945      6.43249         0.002644     -0.001102     -0.001503
      6.60486     17.10312      3.73330        -0.000917      0.001401      0.002936
      1.39701     17.10492      3.69667         0.000312      0.002053      0.000351
      3.80387     14.00252      1.22575        -0.001803      0.001047      0.000221
      9.00584     14.01547      1.26126        -0.001104      0.000934      0.003434
      9.99971     17.10374      1.93429        -0.001334      0.001460      0.000470
      4.79077     17.10193      0.56972        -0.000416      0.001140     -0.000062
      0.40760     14.00326      3.02325        -0.000405      0.001551      0.001361
      5.60851     13.99391      4.40686        -0.001038      0.002186      0.000888
      7.04991     18.30300      1.02509        -0.001526      0.001619      0.002045
      1.85104     15.90128      1.46646        -0.001166      0.001985      0.000192
      3.35713     15.21556      3.94083         0.002170      0.004270      0.001991
      8.55758     12.80274      3.48616         0.001073      0.001563      0.004054
      3.33846     12.81335      3.94402        -0.002783      0.003189     -0.001005
      8.55565     15.20603      3.49691        -0.001490      0.001883      0.002040
      7.05215     15.90216      1.02429        -0.002158      0.001898      0.002530
      1.85049     18.30654      1.46725        -0.000539      0.001723     -0.000881
      6.58457     17.10403      8.68883         0.000858      0.002220      0.001692
      1.39752     17.10331      8.64278         0.000268      0.002211      0.000121
      3.81095     14.02233      6.17590        -0.002435      0.001760     -0.000476
      8.99599     14.00746      6.21706        -0.001481      0.000875      0.002235
      9.98910     17.10616      6.88856        -0.001187      0.002288      0.000576
      4.79524     17.10657      5.49533        -0.001539      0.003211      0.001899
      0.38395     14.04969      8.00500         0.000267      0.000021      0.000884
      5.60719     14.00499      9.35912        -0.001014      0.000859     -0.001175
      7.05184     18.30419      5.96260        -0.000695      0.000943      0.002829
      1.84090     15.90470      6.40943        -0.000991      0.001955     -0.000485
      3.34865     15.20877      8.89436        -0.000137      0.000971     -0.001243
      8.54117     12.81569      8.44634        -0.002055      0.001710      0.004130
      3.35479     12.80047      8.88534        -0.001867      0.001397      0.000164
      8.52111     15.21806      8.43927         0.001462      0.001435      0.002615
      7.04878     15.90044      5.96404        -0.001832      0.000698      0.002799
      1.84025     18.30679      6.41168        -0.000491      0.002188      0.000779
      5.47724      6.70972      7.37592        -0.127030     -0.324805      0.071149
 -----------------------------------------------------------------------------------
    total drift:                                0.022598     -0.018985     -0.007578


--------------------------------------------------------------------------------------------------------



  FREE ENERGIE OF THE ION-ELECTRON SYSTEM (eV)
  ---------------------------------------------------
  free  energy   TOTEN  =     -1017.25742455 eV

  energy  without entropy=    -1017.25742455  energy(sigma->0) =    -1017.25742455



--------------------------------------------------------------------------------------------------------


    POTLOK:  cpu time      0.5641: real time      0.5679


--------------------------------------------------------------------------------------------------------




--------------------------------------------------------------------------------------------------------


 writing wavefunctions
     LOOP+:  cpu time    178.6979: real time    214.5813
    4ORBIT:  cpu time      0.0000: real time      0.0000



 total charge

# of ion       s       p       d       tot
------------------------------------------
    1        0.253   6.283   5.520  12.055
    2        0.255   6.284   5.527  12.066
    3        0.252   6.281   5.520  12.054
    4        0.254   6.286   5.524  12.064
    5        0.252   6.280   5.523  12.056
    6        0.253   6.282   5.521  12.056
    7        0.254   6.286   5.521  12.061
    8        0.252   6.282   5.521  12.055
    9        0.254   6.285   5.524  12.064
   10        0.255   6.286   5.527  12.068
   11        0.256   6.288   5.524  12.067
   12        0.256   6.288   5.528  12.072
   13        0.252   6.281   5.522  12.055
   14        0.253   6.283   5.520  12.056
   15        0.185   6.172   5.900  12.258
   16        0.259   6.293   5.543  12.094
   17        0.253   6.282   5.521  12.056
   18        0.253   6.282   5.520  12.054
   19        0.253   6.282   5.520  12.054
   20        0.254   6.285   5.522  12.061
   21        0.253   6.283   5.521  12.056
   22        0.253   6.283   5.520  12.055
   23        0.254   6.286   5.521  12.061
   24        0.252   6.280   5.520  12.053
   25        0.909   1.477   0.000   2.385
   26        0.909   1.480   0.000   2.389
   27        0.908   1.476   0.000   2.384
   28        0.908   1.479   0.000   2.387
   29        0.910   1.482   0.000   2.391
   30        0.908   1.479   0.000   2.387
   31        0.908   1.478   0.000   2.386
   32        0.908   1.479   0.000   2.387
   33        0.908   1.479   0.000   2.388
   34        0.909   1.481   0.000   2.389
   35        0.909   1.478   0.000   2.387
   36        0.909   1.481   0.000   2.390
   37        0.908   1.479   0.000   2.388
   38        0.908   1.479   0.000   2.387
   39        0.909   1.484   0.000   2.393
   40        0.910   1.489   0.000   2.399
   41        0.908   1.479   0.000   2.387
   42        0.908   1.478   0.000   2.386
   43        0.908   1.476   0.000   2.384
   44        0.908   1.479   0.000   2.387
   45        0.908   1.479   0.000   2.388
   46        0.908   1.478   0.000   2.385
   47        0.908   1.478   0.000   2.386
   48        0.908   1.479   0.000   2.388
   49        1.566   3.591   0.000   5.157
   50        1.566   3.590   0.000   5.157
   51        1.566   3.588   0.000   5.154
   52        1.566   3.588   0.000   5.154
   53        1.558   3.586   0.000   5.143
   54        1.559   3.586   0.000   5.146
   55        1.558   3.586   0.000   5.144
   56        1.558   3.583   0.000   5.141
   57        1.565   3.539   0.000   5.103
   58        1.565   3.542   0.000   5.107
   59        1.564   3.542   0.000   5.106
   60        1.564   3.542   0.000   5.107
   61        1.564   3.542   0.000   5.106
   62        1.565   3.542   0.000   5.107
   63        1.564   3.546   0.000   5.111
   64        1.564   3.541   0.000   5.105
   65        1.563   3.583   0.000   5.146
   66        1.564   3.588   0.000   5.153
   67        1.566   3.587   0.000   5.153
   68        1.566   3.587   0.000   5.153
   69        1.557   3.585   0.000   5.142
   70        1.558   3.581   0.000   5.139
   71        1.559   3.585   0.000   5.144
   72        1.558   3.586   0.000   5.144
   73        1.566   3.550   0.000   5.115
   74        1.565   3.549   0.000   5.114
   75        1.565   3.541   0.000   5.106
   76        1.564   3.546   0.000   5.110
   77        1.564   3.544   0.000   5.108
   78        1.563   3.545   0.000   5.109
   79        1.565   3.543   0.000   5.107
   80        1.567   3.546   0.000   5.113
   81        1.565   3.589   0.000   5.155
   82        1.566   3.591   0.000   5.157
   83        1.567   3.593   0.000   5.160
   84        1.566   3.589   0.000   5.155
   85        1.558   3.585   0.000   5.143
   86        1.559   3.586   0.000   5.145
   87        1.559   3.592   0.000   5.150
   88        1.557   3.583   0.000   5.140
   89        1.564   3.546   0.000   5.110
   90        1.564   3.542   0.000   5.107
   91        1.564   3.545   0.000   5.109
   92        1.565   3.544   0.000   5.109
   93        1.564   3.544   0.000   5.107
   94        1.564   3.546   0.000   5.111
   95        1.564   3.544   0.000   5.108
   96        1.565   3.543   0.000   5.108
   97        1.566   3.588   0.000   5.153
   98        1.565   3.588   0.000   5.152
   99        1.563   3.604   0.000   5.167
  100        1.565   3.591   0.000   5.156
  101        1.557   3.584   0.000   5.141
  102        1.558   3.588   0.000   5.145
  103        1.560   3.602   0.000   5.162
  104        1.555   3.597   0.000   5.152
  105        1.564   3.542   0.000   5.106
  106        1.565   3.553   0.000   5.118
  107        1.564   3.558   0.000   5.123
  108        1.564   3.539   0.000   5.103
  109        1.563   3.554   0.000   5.117
  110        1.564   3.542   0.000   5.105
  111        1.565   3.541   0.000   5.106
  112        1.565   3.548   0.000   5.113
  113        1.566   3.589   0.000   5.154
  114        1.566   3.589   0.000   5.154
  115        1.566   3.588   0.000   5.154
  116        1.566   3.589   0.000   5.154
  117        1.558   3.585   0.000   5.143
  118        1.558   3.586   0.000   5.145
  119        1.558   3.586   0.000   5.145
  120        1.558   3.583   0.000   5.141
  121        1.564   3.545   0.000   5.109
  122        1.565   3.542   0.000   5.107
  123        1.564   3.542   0.000   5.106
  124        1.564   3.544   0.000   5.108
  125        1.564   3.543   0.000   5.107
  126        1.564   3.543   0.000   5.107
  127        1.564   3.544   0.000   5.109
  128        1.564   3.543   0.000   5.108
  129        1.566   3.588   0.000   5.154
  130        1.566   3.589   0.000   5.155
  131        1.566   3.587   0.000   5.153
  132        1.565   3.587   0.000   5.152
  133        1.558   3.585   0.000   5.142
  134        1.558   3.587   0.000   5.145
  135        1.559   3.585   0.000   5.144
  136        1.558   3.586   0.000   5.143
  137        1.564   3.545   0.000   5.109
  138        1.564   3.544   0.000   5.108
  139        1.564   3.544   0.000   5.108
  140        1.564   3.544   0.000   5.108
  141        1.565   3.542   0.000   5.107
  142        1.564   3.546   0.000   5.110
  143        1.564   3.544   0.000   5.108
  144        1.564   3.545   0.000   5.109
  145        0.048   5.991   0.000   6.039
--------------------------------------------------
tot        177.926 534.550 132.931 845.406



 magnetization (x)

# of ion       s       p       d       tot
------------------------------------------
    1        0.024   0.031   4.292   4.347
    2        0.024   0.033   4.284   4.341
    3        0.024   0.031   4.290   4.345
    4        0.024   0.031   4.291   4.346
    5        0.024   0.030   4.285   4.339
    6        0.023   0.031   4.291   4.345
    7        0.023   0.031   4.295   4.349
    8        0.024   0.031   4.289   4.344
    9        0.024   0.031   4.289   4.344
   10        0.024   0.032   4.286   4.342
   11        0.025   0.031   4.291   4.346
   12        0.024   0.032   4.285   4.341
   13        0.024   0.031   4.287   4.343
   14        0.023   0.031   4.293   4.347
   15        0.027   0.020   3.738   3.785
   16        0.024   0.033   4.270   4.326
   17        0.024   0.031   4.291   4.345
   18        0.024   0.031   4.292   4.346
   19        0.024   0.031   4.290   4.345
   20        0.024   0.031   4.291   4.346
   21        0.024   0.031   4.292   4.346
   22        0.024   0.031   4.292   4.346
   23        0.023   0.031   4.295   4.349
   24        0.024   0.031   4.289   4.344
   25        0.003   0.010   0.000   0.013
   26        0.003   0.012   0.000   0.015
   27        0.003   0.011   0.000   0.015
   28        0.003   0.011   0.000   0.015
   29        0.003   0.010   0.000   0.013
   30        0.004   0.012   0.000   0.016
   31        0.003   0.012   0.000   0.015
   32        0.003   0.011   0.000   0.015
   33        0.003   0.011   0.000   0.015
   34        0.003   0.012   0.000   0.015
   35        0.003   0.010   0.000   0.013
   36        0.004   0.012   0.000   0.015
   37        0.003   0.011   0.000   0.015
   38        0.004   0.012   0.000   0.016
   39        0.004   0.012   0.000   0.016
   40        0.003   0.010   0.000   0.013
   41        0.003   0.011   0.000   0.015
   42        0.003   0.011   0.000   0.015
   43        0.003   0.011   0.000   0.015
   44        0.003   0.011   0.000   0.015
   45        0.003   0.012   0.000   0.015
   46        0.004   0.012   0.000   0.015
   47        0.003   0.012   0.000   0.015
   48        0.003   0.011   0.000   0.015
   49        0.007   0.100   0.000   0.107
   50        0.008   0.110   0.000   0.118
   51        0.007   0.112   0.000   0.119
   52        0.007   0.109   0.000   0.116
   53        0.008   0.105   0.000   0.113
   54        0.007   0.094   0.000   0.101
   55        0.008   0.100   0.000   0.108
   56        0.008   0.104   0.000   0.112
   57        0.010   0.121   0.000   0.130
   58        0.010   0.122   0.000   0.131
   59        0.010   0.120   0.000   0.129
   60        0.010   0.126   0.000   0.136
   61        0.010   0.125   0.000   0.135
   62        0.010   0.124   0.000   0.134
   63        0.010   0.121   0.000   0.131
   64        0.010   0.124   0.000   0.134
   65        0.006   0.093   0.000   0.100
   66        0.008   0.112   0.000   0.119
   67        0.007   0.106   0.000   0.113
   68        0.007   0.109   0.000   0.116
   69        0.008   0.116   0.000   0.124
   70        0.007   0.082   0.000   0.089
   71        0.008   0.095   0.000   0.103
   72        0.008   0.105   0.000   0.113
   73        0.008   0.102   0.000   0.110
   74        0.010   0.126   0.000   0.136
   75        0.010   0.121   0.000   0.131
   76        0.010   0.126   0.000   0.137
   77        0.010   0.121   0.000   0.131
   78        0.010   0.129   0.000   0.139
   79        0.010   0.121   0.000   0.131
   80        0.008   0.116   0.000   0.124
   81        0.007   0.108   0.000   0.115
   82        0.007   0.108   0.000   0.115
   83        0.007   0.103   0.000   0.111
   84        0.007   0.111   0.000   0.118
   85        0.008   0.105   0.000   0.113
   86        0.008   0.095   0.000   0.102
   87        0.007   0.099   0.000   0.106
   88        0.007   0.094   0.000   0.101
   89        0.010   0.128   0.000   0.139
   90        0.010   0.125   0.000   0.135
   91        0.010   0.124   0.000   0.134
   92        0.010   0.121   0.000   0.130
   93        0.010   0.126   0.000   0.136
   94        0.010   0.128   0.000   0.138
   95        0.010   0.127   0.000   0.137
   96        0.010   0.121   0.000   0.131
   97        0.007   0.108   0.000   0.115
   98        0.008   0.110   0.000   0.117
   99        0.003   0.027   0.000   0.030
  100        0.008   0.117   0.000   0.125
  101        0.008   0.109   0.000   0.117
  102        0.008   0.096   0.000   0.103
  103        0.003   0.045   0.000   0.048
  104        0.007   0.091   0.000   0.098
  105        0.010   0.125   0.000   0.135
  106        0.008   0.111   0.000   0.119
  107        0.009   0.092   0.000   0.100
  108        0.010   0.121   0.000   0.131
  109        0.008   0.084   0.000   0.092
  110        0.010   0.129   0.000   0.139
  111        0.010   0.123   0.000   0.133
  112        0.010   0.126   0.000   0.136
  113        0.007   0.109   0.000   0.117
  114        0.007   0.111   0.000   0.118
  115        0.007   0.112   0.000   0.119
  116        0.007   0.108   0.000   0.115
  117        0.008   0.104   0.000   0.112
  118        0.008   0.100   0.000   0.107
  119        0.008   0.099   0.000   0.107
  120        0.008   0.105   0.000   0.113
  121        0.010   0.127   0.000   0.137
  122        0.010   0.124   0.000   0.134
  123        0.010   0.126   0.000   0.136
  124        0.010   0.126   0.000   0.137
  125        0.010   0.122   0.000   0.132
  126        0.010   0.126   0.000   0.136
  127        0.010   0.126   0.000   0.136
  128        0.010   0.125   0.000   0.135
  129        0.007   0.110   0.000   0.117
  130        0.007   0.109   0.000   0.116
  131        0.007   0.106   0.000   0.113
  132        0.007   0.111   0.000   0.118
  133        0.008   0.102   0.000   0.110
  134        0.008   0.100   0.000   0.108
  135        0.008   0.096   0.000   0.104
  136        0.008   0.105   0.000   0.113
  137        0.010   0.126   0.000   0.136
  138        0.010   0.124   0.000   0.134
  139        0.010   0.122   0.000   0.132
  140        0.010   0.128   0.000   0.138
  141        0.010   0.121   0.000   0.131
  142        0.010   0.128   0.000   0.138
  143        0.010   0.126   0.000   0.136
  144        0.010   0.123   0.000   0.134
  145        0.000   0.000   0.000   0.000
--------------------------------------------------
tot          1.485  11.722 102.387 115.594


 total amount of memory used by VASP MPI-rank0   280276. kBytes
=======================================================================

   base      :      30000. kBytes
   nonlr-proj:      27458. kBytes
   fftplans  :       9556. kBytes
   grid      :      26700. kBytes
   one-center:       1150. kBytes
   wavefun   :     185412. kBytes

  
  
 General timing and accounting informations for this job:
 ========================================================
  
                  Total CPU time used (sec):      246.467
                            User time (sec):      234.975
                          System time (sec):       11.492
                         Elapsed time (sec):      329.987
  
                   Maximum memory used (kb):      941012.
                   Average memory used (kb):          N/A
  
                          Minor page faults:       120924
                          Major page faults:           44
                 Voluntary context switches:       190205
