 vasp.6.4.0 14Feb23 (build Mar 11 2024 14:58:30) complex                         
 executed on             epyc9004 date 2024.08.19  18:52:06
 running  288 mpi-ranks, on    3 nodes
 distrk:  each k-point on   96 cores,    3 groups
 distr:  one band on NCORE=   4 cores,   24 groups


--------------------------------------------------------------------------------------------------------


 INCAR:
   ENCUT = 520.000000
   SIGMA = 0.050000
   TIME = 0.050000
   NUPDOWN = 119.000000
   EDIFF = 1.00e-06
   EDIFFG = -2.00e-02
   SYMPREC = 1.00e-07
   ALGO = all
   GGA = PE
   PREC = accurate
   IBRION = 2
   ISIF = 2
   ISMEAR = 0
   ISPIN = 2
   ISYM = 0
   KPAR = 3
   LMAXMIX = 4
   LORBIT = 12
   NELM = 300
   NELMIN = 8
   NSW = 1
   NCORE = 4
   LASPH = .TRUE.
   LCHARG = .TRUE.
   LDAU = .TRUE.
   LWAVE = .TRUE.
   LREAL = auto
   LDAUL = 2 -1 -1 -1
   LDAUU = 5.300 0.000 0.000 0.000
   LDAUJ = 0.000 0.000 0.000 0.000
   MAGMOM = 1*4.3453 1*4.3407 1*4.3447 1*4.3460 1*4.3423 1*4.3453 1*4.3490 1*4.3450 1*4.3467 1*4.3403 1*4.3460 1*4.3430 1*4.3417 1*4.3437 1*3.7850 1*4.3300 1*4.3450 1*4.3460 1*4.3443 1*4.3460 1*4.3470 1*4.3467 1*4.3490 1*4.3450 1*0.0143 3*0.0150 1*0.0143 1*0.0160 2*0.0150 1*0.0137 1*0.0150 1*0.0130 1*0.0150 1*0.0137 2*0.0160 1*0.0130 8*0.0150 1*0.1117 1*0.1163 1*0.1190 1*0.1153 1*0.1120 1*0.1023 1*0.1077 1*0.1113 1*0.1340 1*0.1313 1*0.1310 2*0.1360 3*0.1350 1*0.1093 1*0.1180 1*0.1127 1*0.1173 1*0.1190 1*0.0973 1*0.1037 1*0.1120 1*0.1273 1*0.1360 1*0.1310 1*0.1383 1*0.1317 1*0.1373 1*0.1327 1*0.1210 1*0.1073 1*0.1167 1*0.1120 1*0.1170 1*0.1120 1*0.1007 1*0.1070 1*0.1040 1*0.1320 1*0.1350 1*0.1360 1*0.1357 1*0.1350 1*0.1333 1*0.1320 1*0.1317 1*0.1017 1*0.1190 1*0.0300 1*0.1250 1*0.1227 1*0.0907 1*0.0490 1*0.1000 1*0.1303 1*0.1230 1*0.0933 1*0.1387 1*0.0967 1*0.1363 1*0.1197 1*0.1360 1*0.1170 1*0.1180 1*0.1190 1*0.1157 1*0.1110 1*0.1080 1*0.1083 1*0.1107 1*0.1363 1*0.1353 1*0.1360 1*0.1340 1*0.1300 1*0.1360 1*0.1367 1*0.1347 1*0.1170 1*0.1160 1*0.1123 1*0.1167 1*0.1097 1*0.1080 1*0.1033 1*0.1120 1*0.1360 1*0.1340 1*0.1313 1*0.1380 1*0.1313 1*0.1377 1*0.1360 1*0.1340 1*0.0000

 POTCAR:    PAW_PBE Fe_pv 02Aug2007               
 POTCAR:    PAW_PBE P 06Sep2000                   
 POTCAR:    PAW_PBE O 08Apr2002                   
 POTCAR:    PAW_PBE Na_pv 19Sep2006               
 -----------------------------------------------------------------------------
|                                                                             |
|           W    W    AA    RRRRR   N    N  II  N    N   GGGG   !!!           |
|           W    W   A  A   R    R  NN   N  II  NN   N  G    G  !!!           |
|           W    W  A    A  R    R  N N  N  II  N N  N  G       !!!           |
|           W WW W  AAAAAA  RRRRR   N  N N  II  N  N N  G  GGG   !            |
|           WW  WW  A    A  R   R   N   NN  II  N   NN  G    G                |
|           W    W  A    A  R    R  N    N  II  N    N   GGGG   !!!           |
|                                                                             |
|     For optimal performance we recommend to set                             |
|       NCORE = 2 up to number-of-cores-per-socket                            |
|     NCORE specifies how many cores store one orbital (NPAR=cpu/NCORE).      |
|     This setting can greatly improve the performance of VASP for DFT.       |
|     The default, NCORE=1 might be grossly inefficient on modern             |
|     multi-core architectures or massively parallel machines. Do your        |
|     own testing! More info at https://www.vasp.at/wiki/index.php/NCORE      |
|     Unfortunately you need to use the default for GW and RPA                |
|     calculations (for HF NCORE is supported but not extensively tested      |
|     yet).                                                                   |
|                                                                             |
 -----------------------------------------------------------------------------

 POTCAR:    PAW_PBE Fe_pv 02Aug2007               
   VRHFIN =Fe:  3pd7s1                                                                              
   LEXCH  = PE                                                                                      
   EATOM  =  2457.4239 eV,  180.6156 Ry                                                             
                                                                                                    
   TITEL  = PAW_PBE Fe_pv 02Aug2007                                                                 
   LULTRA =        F    use ultrasoft PP ?                                                          
   IUNSCR =        1    unscreen: 0-lin 1-nonlin 2-no                                               
   RPACOR =    1.750    partial core radius                                                         
   POMASS =   55.847; ZVAL   =   14.000    mass and valenz                                          
   RCORE  =    2.200    outmost cutoff radius                                                       
   RWIGS  =    2.200; RWIGS  =    1.164    wigner-seitz radius (au A)                               
   ENMAX  =  293.238; ENMIN  =  219.928 eV                                                          
   ICORE  =        3    local potential                                                             
   LCOR   =        T    correct aug charges                                                         
   LPAW   =        T    paw PP                                                                      
   EAUG   =  578.342                                                                                
   DEXC   =    0.000                                                                                
   RMAX   =    2.249    core radius for proj-oper                                                   
   RAUG   =    1.300    factor for augmentation sphere                                              
   RDEP   =    2.296    radius for radial grids                                                     
   RDEPT  =    1.766    core radius for aug-charge                                                  
                                                                                                    
   Atomic configuration                                                                             
    8 entries                                                                                       
     n  l   j            E        occ.                                                              
     1  0  0.50     -6993.8440   2.0000                                                             
     2  0  0.50      -814.6047   2.0000                                                             
     2  1  1.50      -693.3689   6.0000                                                             
     3  0  0.50       -89.4732   2.0000                                                             
     3  1  1.50       -55.6373   6.0000                                                             
     3  2  2.50        -3.8151   7.0000                                                             
     4  0  0.50        -4.2551   1.0000                                                             
     4  3  2.50        -1.3606   0.0000                                                             
   Description                                                                                      
     l       E           TYP  RCUT    TYP  RCUT                                                     
     1    -55.6372668     23  2.000                                                                 
     1     -5.4423304     23  2.000                                                                 
     2     -3.8151096     23  2.200                                                                 
     2     -5.1756922     23  2.200                                                                 
     0     -4.2550951     23  2.200                                                                 
     0     27.2116520     23  2.200                                                                 
     3     -1.3605826     23  2.200                                                                 
  local pseudopotential read in
  partial core-charges read in
  partial kinetic energy density read in
  atomic valenz-charges read in
  non local Contribution for L=           1  read in
    real space projection operators read in
  non local Contribution for L=           1  read in
    real space projection operators read in
  non local Contribution for L=           2  read in
    real space projection operators read in
  non local Contribution for L=           2  read in
    real space projection operators read in
  non local Contribution for L=           0  read in
    real space projection operators read in
  non local Contribution for L=           0  read in
    real space projection operators read in
    PAW grid and wavefunctions read in

   number of l-projection  operators is LMAX  =           6
   number of lm-projection operators is LMMAX =          18

 POTCAR:    PAW_PBE P 06Sep2000                   
   VRHFIN =P : s2p3                                                                                 
   LEXCH  = PE                                                                                      
   EATOM  =   176.0430 eV,   12.9388 Ry                                                             
                                                                                                    
   TITEL  = PAW_PBE P 06Sep2000                                                                     
   LULTRA =        F    use ultrasoft PP ?                                                          
   IUNSCR =        1    unscreen: 0-lin 1-nonlin 2-no                                               
   RPACOR =    1.500    partial core radius                                                         
   POMASS =   30.974; ZVAL   =    5.000    mass and valenz                                          
   RCORE  =    1.900    outmost cutoff radius                                                       
   RWIGS  =    2.330; RWIGS  =    1.233    wigner-seitz radius (au A)                               
   ENMAX  =  255.040; ENMIN  =  191.280 eV                                                          
   ICORE  =        2    local potential                                                             
   LCOR   =        T    correct aug charges                                                         
   LPAW   =        T    paw PP                                                                      
   EAUG   =  342.924                                                                                
   DEXC   =    0.000                                                                                
   RMAX   =    1.935    core radius for proj-oper                                                   
   RAUG   =    1.300    factor for augmentation sphere                                              
   RDEP   =    1.931    radius for radial grids                                                     
   RDEPT  =    1.794    core radius for aug-charge                                                  
                                                                                                    
   Atomic configuration                                                                             
    6 entries                                                                                       
     n  l   j            E        occ.                                                              
     1  0  0.50     -2084.0982   2.0000                                                             
     2  0  0.50      -173.9859   2.0000                                                             
     2  1  1.50      -124.4865   6.0000                                                             
     3  0  0.50       -13.9692   2.0000                                                             
     3  1  0.50        -5.5067   3.0000                                                             
     3  2  1.50        -5.4423   0.0000                                                             
   Description                                                                                      
     l       E           TYP  RCUT    TYP  RCUT                                                     
     0    -13.9691527     23  1.900                                                                 
     0    -11.7794650     23  1.900                                                                 
     1     -5.5066937     23  1.900                                                                 
     1     -0.2556953     23  1.900                                                                 
     2     -5.4423304     23  1.900                                                                 
  local pseudopotential read in
  partial core-charges read in
  partial kinetic energy density read in
  atomic valenz-charges read in
  non local Contribution for L=           0  read in
    real space projection operators read in
  non local Contribution for L=           0  read in
    real space projection operators read in
  non local Contribution for L=           1  read in
    real space projection operators read in
  non local Contribution for L=           1  read in
    real space projection operators read in
    PAW grid and wavefunctions read in

   number of l-projection  operators is LMAX  =           4
   number of lm-projection operators is LMMAX =           8

 POTCAR:    PAW_PBE O 08Apr2002                   
   VRHFIN =O: s2p4                                                                                  
   LEXCH  = PE                                                                                      
   EATOM  =   432.3788 eV,   31.7789 Ry                                                             
                                                                                                    
   TITEL  = PAW_PBE O 08Apr2002                                                                     
   LULTRA =        F    use ultrasoft PP ?                                                          
   IUNSCR =        1    unscreen: 0-lin 1-nonlin 2-no                                               
   RPACOR =    1.200    partial core radius                                                         
   POMASS =   16.000; ZVAL   =    6.000    mass and valenz                                          
   RCORE  =    1.520    outmost cutoff radius                                                       
   RWIGS  =    1.550; RWIGS  =    0.820    wigner-seitz radius (au A)                               
   ENMAX  =  400.000; ENMIN  =  300.000 eV                                                          
   ICORE  =        2    local potential                                                             
   LCOR   =        T    correct aug charges                                                         
   LPAW   =        T    paw PP                                                                      
   EAUG   =  605.392                                                                                
   DEXC   =    0.000                                                                                
   RMAX   =    1.553    core radius for proj-oper                                                   
   RAUG   =    1.300    factor for augmentation sphere                                              
   RDEP   =    1.550    radius for radial grids                                                     
   RDEPT  =    1.329    core radius for aug-charge                                                  
                                                                                                    
   Atomic configuration                                                                             
    4 entries                                                                                       
     n  l   j            E        occ.                                                              
     1  0  0.50      -514.6923   2.0000                                                             
     2  0  0.50       -23.9615   2.0000                                                             
     2  1  0.50        -9.0305   4.0000                                                             
     3  2  1.50        -9.5241   0.0000                                                             
   Description                                                                                      
     l       E           TYP  RCUT    TYP  RCUT                                                     
     0    -23.9615318     23  1.200                                                                 
     0     -9.5240782     23  1.200                                                                 
     1     -9.0304911     23  1.520                                                                 
     1      8.1634956     23  1.520                                                                 
     2     -9.5240782      7  1.500                                                                 
  local pseudopotential read in
  partial core-charges read in
  partial kinetic energy density read in
  kinetic energy density of atom read in
  atomic valenz-charges read in
  non local Contribution for L=           0  read in
    real space projection operators read in
  non local Contribution for L=           0  read in
    real space projection operators read in
  non local Contribution for L=           1  read in
    real space projection operators read in
  non local Contribution for L=           1  read in
    real space projection operators read in
    PAW grid and wavefunctions read in

   number of l-projection  operators is LMAX  =           4
   number of lm-projection operators is LMMAX =           8

 POTCAR:    PAW_PBE Na_pv 19Sep2006               
   VRHFIN =Na: p6s1                                                                                 
   LEXCH  = PE                                                                                      
   EATOM  =   766.0439 eV,   56.3026 Ry                                                             
                                                                                                    
   TITEL  = PAW_PBE Na_pv 19Sep2006                                                                 
   LULTRA =        F    use ultrasoft PP ?                                                          
   IUNSCR =        1    unscreen: 0-lin 1-nonlin 2-no                                               
   RPACOR =    1.800    partial core radius                                                         
   POMASS =   22.990; ZVAL   =    7.000    mass and valenz                                          
   RCORE  =    2.200    outmost cutoff radius                                                       
   RWIGS  =    2.200; RWIGS  =    1.164    wigner-seitz radius (au A)                               
   ENMAX  =  259.561; ENMIN  =  194.671 eV                                                          
   ICORE  =        2    local potential                                                             
   LCOR   =        T    correct aug charges                                                         
   LPAW   =        T    paw PP                                                                      
   EAUG   =  368.056                                                                                
   DEXC   =    0.000                                                                                
   RMAX   =    2.245    core radius for proj-oper                                                   
   RAUG   =    1.300    factor for augmentation sphere                                              
   RDEP   =    2.259    radius for radial grids                                                     
   RDEPT  =    1.738    core radius for aug-charge                                                  
                                                                                                    
   Atomic configuration                                                                             
    5 entries                                                                                       
     n  l   j            E        occ.                                                              
     1  0  0.50     -1033.6933   2.0000                                                             
     2  0  0.50       -56.7526   2.0000                                                             
     2  1  1.50       -28.6721   6.0000                                                             
     3  0  0.50        -2.7440   1.0000                                                             
     3  2  1.50        -1.3606   0.0000                                                             
   Description                                                                                      
     l       E           TYP  RCUT    TYP  RCUT                                                     
     1    -28.6720912     23  2.000                                                                 
     1      6.8029130     23  2.000                                                                 
     0     -2.7439560     23  2.200                                                                 
     0     34.0145650     23  2.200                                                                 
     2     -1.3605826     23  2.200                                                                 
  local pseudopotential read in
  partial core-charges read in
  partial kinetic energy density read in
  atomic valenz-charges read in
  non local Contribution for L=           1  read in
    real space projection operators read in
  non local Contribution for L=           1  read in
    real space projection operators read in
  non local Contribution for L=           0  read in
    real space projection operators read in
  non local Contribution for L=           0  read in
    real space projection operators read in
    PAW grid and wavefunctions read in

   number of l-projection  operators is LMAX  =           4
   number of lm-projection operators is LMMAX =           8

 Optimization of the real space projectors (new method)

 maximal supplied QI-value         = 17.01
 optimisation between [QCUT,QGAM] = [ 11.57, 23.30] = [ 37.45,152.03] Ry 
 Optimized for a Real-space Cutoff    1.45 Angstroem

   l    n(q)    QCUT    max X(q) W(low)/X(q) W(high)/X(q)  e(spline) 
   1     10    11.565     4.267    0.91E-04    0.15E-03    0.13E-06
   1     10    11.565     5.750    0.14E-03    0.22E-03    0.20E-06
   2      9    11.565    53.656    0.13E-03    0.57E-04    0.16E-06
   2      9    11.565    49.521    0.13E-03    0.59E-04    0.16E-06
   0     10    11.565    31.246    0.61E-04    0.74E-05    0.89E-07
   0     10    11.565    12.201    0.44E-04    0.68E-05    0.74E-07
 Optimization of the real space projectors (new method)

 maximal supplied QI-value         = 19.84
 optimisation between [QCUT,QGAM] = [ 11.51, 23.22] = [ 37.09,150.92] Ry 
 Optimized for a Real-space Cutoff    1.21 Angstroem

   l    n(q)    QCUT    max X(q) W(low)/X(q) W(high)/X(q)  e(spline) 
   0      8    11.508   160.924    0.96E-04    0.17E-03    0.52E-07
   0      8    11.508   130.086    0.95E-04    0.17E-03    0.51E-07
   1      8    11.508    74.434    0.16E-03    0.74E-04    0.91E-07
   1      8    11.508    49.120    0.16E-03    0.71E-04    0.89E-07
 Optimization of the real space projectors (new method)

 maximal supplied QI-value         = 24.76
 optimisation between [QCUT,QGAM] = [ 11.64, 23.27] = [ 37.91,151.63] Ry 
 Optimized for a Real-space Cutoff    1.14 Angstroem

   l    n(q)    QCUT    max X(q) W(low)/X(q) W(high)/X(q)  e(spline) 
   0      8    11.635    20.381    0.10E-03    0.33E-03    0.24E-06
   0      8    11.635    15.268    0.11E-03    0.35E-03    0.26E-06
   1      7    11.635     5.964    0.24E-03    0.31E-03    0.30E-06
   1      7    11.635     5.382    0.22E-03    0.25E-03    0.26E-06
 Optimization of the real space projectors (new method)

 maximal supplied QI-value         = 17.01
 optimisation between [QCUT,QGAM] = [ 11.57, 23.30] = [ 37.45,152.03] Ry 
 Optimized for a Real-space Cutoff    1.45 Angstroem

   l    n(q)    QCUT    max X(q) W(low)/X(q) W(high)/X(q)  e(spline) 
   1     10    11.565     4.940    0.87E-04    0.13E-03    0.13E-06
   1     10    11.565     6.253    0.13E-03    0.19E-03    0.20E-06
   0     10    11.565    37.438    0.53E-04    0.73E-05    0.79E-07
   0     10    11.565     9.606    0.27E-04    0.60E-05    0.56E-07
  PAW_PBE Fe_pv 02Aug2007               :
 energy of atom  1       EATOM=-2457.4239
 kinetic energy error for atom=    0.0062 (will be added to EATOM!!)
  PAW_PBE P 06Sep2000                   :
 energy of atom  2       EATOM= -176.0430
 kinetic energy error for atom=    0.0011 (will be added to EATOM!!)
  PAW_PBE O 08Apr2002                   :
 energy of atom  3       EATOM= -432.3788
 kinetic energy error for atom=    0.0208 (will be added to EATOM!!)
  PAW_PBE Na_pv 19Sep2006               :
 energy of atom  4       EATOM= -766.0439
 kinetic energy error for atom=    0.0019 (will be added to EATOM!!)


 POSCAR: Fe P  O  Na
  positions in cartesian coordinates
  No initial velocities read in
 exchange correlation table for  LEXCH =        8
   RHO(1)=    0.500       N(1)  =     2000
   RHO(2)=  100.500       N(2)  =     4000



--------------------------------------------------------------------------------------------------------


 ion  position               nearest neighbor table
   1  0.782  0.247  0.255-  49 1.94  53 1.96  62 2.14  63 2.17  92 2.22  57 2.22  25 2.86
   2  0.279  0.250  0.492-  50 1.93  70 1.98  80 2.07  93 2.17  59 2.18  74 2.34  30 2.87
   3  0.220  0.083  0.244-  51 1.93  55 1.97  58 2.17 128 2.18  59 2.20  61 2.23
   4  0.718  0.082  0.007-  52 1.94  72 1.96 121 2.15  63 2.18  76 2.20  78 2.21  32 2.87
   5  0.780  0.247  0.758-  65 1.94  69 1.96  78 2.15  79 2.16 108 2.18  73 2.32
   6  0.283  0.251  0.993-  66 1.94  54 1.99 109 2.08  75 2.19  64 2.22  58 2.23
   7  0.218  0.082  0.744-  67 1.95  71 1.99  74 2.07 144 2.15  77 2.22  75 2.23
   8  0.719  0.082  0.507-  68 1.93  56 1.97 137 2.16  60 2.21  79 2.22  62 2.23
   9  0.782  0.585  0.254-  81 1.94  85 1.96 124 2.15  89 2.18  94 2.20  95 2.21  33 2.86
  10  0.279  0.583  0.491-  82 1.93 102 1.99 106 2.07  91 2.17 125 2.17 112 2.35  38 2.87
  11  0.219  0.416  0.246-  83 1.92  87 1.95  64 2.19  91 2.19  93 2.19  90 2.20  35 2.85
  12  0.721  0.415  0.010-  84 1.92 104 1.98  57 2.15 108 2.19  95 2.20 110 2.22  40 2.87
  13  0.782  0.587  0.757- 101 1.95  97 1.96 140 2.12 105 2.18 110 2.20 111 2.30
  14  0.283  0.582  0.993-  98 1.94  86 1.98 107 2.11 141 2.19  90 2.21  96 2.24
  15  0.208  0.415  0.737- 103 2.00  99 2.05  80 2.28 106 2.33
  16  0.723  0.414  0.491- 100 1.92  88 1.98  92 2.10  94 2.16  73 2.17 111 2.29  36 2.78
  17  0.781  0.917  0.257- 113 1.94 117 1.97  60 2.17 126 2.17 121 2.21 127 2.21
  18  0.281  0.917  0.494- 114 1.93 134 1.97  61 2.16 123 2.16 144 2.22 138 2.22
  19  0.220  0.750  0.244- 115 1.93 119 1.97  96 2.17 122 2.17 125 2.21 123 2.22
  20  0.718  0.752  0.007- 116 1.94 136 1.96 127 2.15  89 2.18 142 2.20 140 2.22
  21  0.779  0.917  0.757- 129 1.94 133 1.97  76 2.15 142 2.16 137 2.22 143 2.22
  22  0.280  0.917  0.995- 130 1.94 118 1.97  77 2.16 139 2.16 128 2.21 122 2.21  42 2.88
  23  0.218  0.751  0.745- 131 1.95 135 1.99 112 2.07 138 2.15 139 2.21 141 2.24
  24  0.719  0.751  0.506- 132 1.94 120 1.97 143 2.15 126 2.20 105 2.20 124 2.23
  25  0.608  0.249  0.031-  54 1.53  65 1.54  63 1.59  57 1.59   1 2.86
  26  0.107  0.249  0.219-  50 1.54  53 1.54  58 1.58  64 1.58
  27  0.393  0.083  0.472-  67 1.53  56 1.54  61 1.58  59 1.59
  28  0.893  0.082  0.280-  52 1.54  55 1.54  60 1.59  62 1.59
  29  0.606  0.251  0.529-  70 1.54  49 1.54  73 1.58  79 1.59
  30  0.107  0.245  0.718-  66 1.54  69 1.55  80 1.58  74 1.58   2 2.87
  31  0.393  0.083  0.971-  51 1.54  72 1.54  75 1.58  77 1.58
  32  0.892  0.082  0.781-  71 1.53  68 1.54  76 1.59  78 1.59   4 2.87
  33  0.608  0.584  0.031-  86 1.54  97 1.54  89 1.58  95 1.58   9 2.86
  34  0.107  0.584  0.218-  82 1.54  85 1.54  96 1.58  90 1.58
  35  0.394  0.416  0.467-  99 1.53  88 1.55  93 1.58  91 1.58  11 2.85
  36  0.896  0.417  0.277-  87 1.53  84 1.54  94 1.58  92 1.59  16 2.78
  37  0.607  0.584  0.528-  81 1.53 102 1.54 111 1.58 105 1.59
  38  0.108  0.588  0.718-  98 1.54 101 1.55 106 1.57 112 1.58  10 2.87
  39  0.392  0.416  0.979-  83 1.53 109 1.56 104 1.57 107 1.57
  40  0.885  0.416  0.777- 103 1.51 100 1.54 108 1.59 110 1.59  12 2.87
  41  0.606  0.917  0.031- 129 1.54 118 1.54 121 1.59 127 1.59
  42  0.107  0.917  0.221- 114 1.54 117 1.54 128 1.58 122 1.58  22 2.88
  43  0.393  0.751  0.472- 131 1.53 120 1.54 123 1.58 125 1.59
  44  0.893  0.751  0.280- 116 1.54 119 1.54 124 1.58 126 1.59
  45  0.607  0.917  0.530- 113 1.54 134 1.54 137 1.58 143 1.58
  46  0.106  0.917  0.721- 130 1.54 133 1.54 144 1.58 138 1.58
  47  0.393  0.750  0.971- 115 1.54 136 1.54 141 1.58 139 1.58
  48  0.892  0.751  0.781- 135 1.53 132 1.54 142 1.58 140 1.59
  49  0.637  0.250  0.377-  29 1.54   1 1.94
  50  0.133  0.249  0.371-  26 1.54   2 1.93
  51  0.366  0.083  0.124-  31 1.54   3 1.93
  52  0.865  0.082  0.128-  28 1.54   4 1.94
  53  0.961  0.249  0.192-  26 1.54   1 1.96
  54  0.463  0.248  0.060-  25 1.53   6 1.99
  55  0.039  0.083  0.306-  28 1.54   3 1.97
  56  0.539  0.084  0.446-  27 1.54   8 1.97
  57  0.680  0.313  0.103-  25 1.59  12 2.15   1 2.22
  58  0.178  0.185  0.146-  26 1.58   3 2.17   6 2.23
  59  0.321  0.147  0.399-  27 1.59   2 2.18   3 2.20
  60  0.822  0.018  0.354-  28 1.59  17 2.17   8 2.21
  61  0.323  0.018  0.398-  27 1.58  18 2.16   3 2.23
  62  0.822  0.147  0.352-  28 1.59   1 2.14   8 2.23
  63  0.680  0.185  0.103-  25 1.59   1 2.17   4 2.18
  64  0.178  0.314  0.147-  26 1.58  11 2.19   6 2.22
  65  0.633  0.249  0.878-  25 1.54   5 1.94
  66  0.137  0.250  0.870-  30 1.54   6 1.94
  67  0.366  0.082  0.624-  27 1.53   7 1.95
  68  0.864  0.083  0.629-  32 1.54   8 1.93
  69  0.960  0.248  0.697-  30 1.55   5 1.96
  70  0.460  0.249  0.553-  29 1.54   2 1.98
  71  0.037  0.080  0.809-  32 1.53   7 1.99
  72  0.539  0.083  0.946-  31 1.54   4 1.96
  73  0.672  0.317  0.601-  29 1.58  16 2.17   5 2.32
  74  0.172  0.178  0.650-  30 1.58   7 2.07   2 2.34
  75  0.323  0.147  0.898-  31 1.58   6 2.19   7 2.23
  76  0.819  0.018  0.853-  32 1.59  21 2.15   4 2.20
  77  0.322  0.018  0.899-  31 1.58  22 2.16   7 2.22
  78  0.821  0.146  0.854-  32 1.59   5 2.15   4 2.21
  79  0.680  0.187  0.603-  29 1.59   5 2.16   8 2.22
  80  0.178  0.306  0.638-  30 1.58   2 2.07  15 2.28
  81  0.636  0.584  0.376-  37 1.53   9 1.94
  82  0.134  0.584  0.371-  34 1.54  10 1.93
  83  0.368  0.417  0.132-  39 1.53  11 1.92
  84  0.871  0.416  0.124-  36 1.54  12 1.92
  85  0.961  0.584  0.192-  34 1.54   9 1.96
  86  0.463  0.585  0.059-  33 1.54  14 1.98
  87  0.041  0.417  0.307-  36 1.53  11 1.95
  88  0.540  0.417  0.439-  35 1.55  16 1.98
  89  0.681  0.648  0.101-  33 1.58  20 2.18   9 2.18
  90  0.178  0.519  0.146-  34 1.58  11 2.20  14 2.21
  91  0.321  0.481  0.396-  35 1.58  10 2.17  11 2.19
  92  0.824  0.352  0.349-  36 1.59  16 2.10   1 2.22
  93  0.322  0.352  0.396-  35 1.58   2 2.17  11 2.19
  94  0.823  0.481  0.349-  36 1.58  16 2.16   9 2.20
  95  0.680  0.519  0.103-  33 1.58  12 2.20   9 2.21
  96  0.178  0.649  0.146-  34 1.58  19 2.17  14 2.24
  97  0.632  0.583  0.877-  33 1.54  13 1.96
  98  0.139  0.583  0.870-  38 1.54  14 1.94
  99  0.371  0.416  0.620-  35 1.53  15 2.05 145 2.22
 100  0.858  0.416  0.624-  40 1.54  16 1.92
 101  0.960  0.585  0.698-  38 1.55  13 1.95
 102  0.461  0.584  0.554-  37 1.54  10 1.99
 103  0.028  0.417  0.805-  40 1.51  15 2.00
 104  0.540  0.415  0.951-  39 1.57  12 1.98 145 2.23
 105  0.679  0.647  0.602-  37 1.59  13 2.18  24 2.20
 106  0.178  0.527  0.637-  38 1.57  10 2.07  15 2.33
 107  0.332  0.483  0.906-  39 1.57  14 2.11
 108  0.812  0.352  0.849-  40 1.59   5 2.18  12 2.19
 109  0.327  0.350  0.908-  39 1.56   6 2.08
 110  0.809  0.480  0.848-  40 1.59  13 2.20  12 2.22
 111  0.674  0.518  0.602-  37 1.58 145 2.29  16 2.29  13 2.30
 112  0.172  0.655  0.651-  38 1.58  23 2.07  10 2.35
 113  0.635  0.917  0.377-  45 1.54  17 1.94
 114  0.134  0.917  0.374-  42 1.54  18 1.93
 115  0.366  0.750  0.124-  47 1.54  19 1.93
 116  0.865  0.751  0.127-  44 1.54  20 1.94
 117  0.961  0.917  0.196-  42 1.54  17 1.97
 118  0.460  0.917  0.058-  41 1.54  22 1.97
 119  0.039  0.750  0.305-  44 1.54  19 1.97
 120  0.539  0.750  0.446-  43 1.54  24 1.97
 121  0.678  0.981  0.104-  41 1.59   4 2.15  17 2.21
 122  0.178  0.852  0.148-  42 1.58  19 2.17  22 2.21
 123  0.322  0.815  0.398-  43 1.58  18 2.16  19 2.22
 124  0.822  0.686  0.352-  44 1.58   9 2.15  24 2.23
 125  0.321  0.686  0.399-  43 1.59  10 2.17  19 2.21
 126  0.822  0.815  0.354-  44 1.59  17 2.17  24 2.20
 127  0.677  0.852  0.104-  41 1.59  20 2.15  17 2.21
 128  0.178  0.981  0.148-  42 1.58   3 2.18  22 2.21
 129  0.633  0.917  0.878-  41 1.54  21 1.94
 130  0.134  0.917  0.874-  46 1.54  22 1.94
 131  0.366  0.751  0.624-  43 1.53  23 1.95
 132  0.865  0.751  0.628-  48 1.54  24 1.94
 133  0.960  0.917  0.696-  46 1.54  21 1.97
 134  0.461  0.917  0.556-  45 1.54  18 1.97
 135  0.037  0.753  0.809-  48 1.53  23 1.99
 136  0.539  0.751  0.946-  47 1.54  20 1.96
 137  0.678  0.981  0.603-  45 1.58   8 2.16  21 2.22
 138  0.177  0.852  0.648-  46 1.58  23 2.15  18 2.22
 139  0.322  0.815  0.899-  47 1.58  22 2.16  23 2.21
 140  0.821  0.686  0.853-  48 1.59  13 2.12  20 2.22
 141  0.323  0.686  0.898-  47 1.58  14 2.19  23 2.24
 142  0.819  0.815  0.853-  48 1.58  21 2.16  20 2.20
 143  0.678  0.852  0.603-  45 1.58  24 2.15  21 2.22
 144  0.177  0.981  0.648-  46 1.58   7 2.15  18 2.22
 145  0.548  0.446  0.734-  99 2.22 104 2.23 111 2.29


IMPORTANT INFORMATION: All symmetrisations will be switched off!
NOSYMM: (Re-)initialisation of all symmetry stuff for point group C_1.


----------------------------------------------------------------------------------------

                                     Primitive cell                                     

  volume of cell :    1920.7920

  direct lattice vectors                    reciprocal lattice vectors
    10.406300000  0.000000000  0.000000000     0.096095634  0.000000000  0.000000000
     0.000000000 18.656100000  0.000000000     0.000000000  0.053601771  0.000000000
     0.000000000  0.000000000  9.893800000     0.000000000  0.000000000  0.101073400

  length of vectors
    10.406300000 18.656100000  9.893800000     0.096095634  0.053601771  0.101073400

  position of ions in fractional coordinates (direct lattice)
     0.782096418  0.246705745  0.254767962
     0.279008767  0.249753217  0.492118577
     0.219690466  0.083393842  0.244357544
     0.718255301  0.081818357  0.007280498
     0.780296968  0.246964244  0.757595695
     0.282738210  0.250786652  0.993120689
     0.217927431  0.081973462  0.744408983
     0.718871938  0.082220770  0.506646877
     0.782254495  0.585338041  0.254252012
     0.279035918  0.583088232  0.491413874
     0.219281389  0.416392548  0.245573097
     0.721417635  0.414883720  0.010408192
     0.781644251  0.587219858  0.757208146
     0.283227312  0.582070585  0.993426049
     0.208463614  0.415098621  0.737067548
     0.723165447  0.413574673  0.491329500
     0.781060186  0.916677218  0.256845936
     0.280590747  0.916649479  0.494069270
     0.219634184  0.750026026  0.244357644
     0.718062453  0.751664108  0.007479403
     0.779475504  0.916744360  0.757484464
     0.280377214  0.916705535  0.994615941
     0.218005860  0.751322857  0.744543039
     0.719085445  0.751366534  0.506326813
     0.607622179  0.248758370  0.031242553
     0.107208227  0.249059914  0.218521469
     0.392743893  0.082512838  0.471688886
     0.893387117  0.082447400  0.279925736
     0.606152052  0.250517810  0.528859473
     0.106605978  0.245210967  0.718490832
     0.392590360  0.082924730  0.971122943
     0.891736441  0.081845943  0.781256009
     0.607873088  0.583843490  0.030929611
     0.107392217  0.584121863  0.217899692
     0.393561881  0.416350082  0.467311926
     0.896107241  0.416779435  0.277099402
     0.607145654  0.583809449  0.528062193
     0.107616818  0.587675681  0.718407303
     0.391731134  0.415774742  0.978739970
     0.884950791  0.416440797  0.776933012
     0.605905290  0.916628568  0.030894062
     0.107084790  0.916608991  0.220985166
     0.392736065  0.750533558  0.471757461
     0.893289007  0.750518879  0.279839846
     0.606576185  0.916625634  0.529854362
     0.106126331  0.916621382  0.721087412
     0.392531067  0.750211165  0.971211073
     0.891877950  0.751404284  0.781101352
     0.636766334  0.250141522  0.376847141
     0.133391530  0.248649797  0.371237109
     0.365542659  0.082776073  0.123922377
     0.865247396  0.082058346  0.127541426
     0.961010037  0.249016334  0.192473758
     0.462684359  0.247684672  0.059710625
     0.039102259  0.082719345  0.305532367
     0.539109241  0.083600471  0.445832522
     0.679876055  0.313349960  0.102975895
     0.178434836  0.184768814  0.146318427
     0.320796853  0.146607181  0.398592044
     0.822079089  0.018328326  0.353609536
     0.322952079  0.017837689  0.398254400
     0.822340489  0.147121020  0.352382768
     0.680478910  0.184586170  0.103357365
     0.177515949  0.314097459  0.147359477
     0.633361100  0.248526890  0.878199681
     0.137277291  0.249562174  0.870256923
     0.366173401  0.081817363  0.624211519
     0.864052361  0.082790952  0.628524012
     0.959511352  0.247540109  0.697210376
     0.460210888  0.248699303  0.552724385
     0.036760728  0.080338880  0.808976816
     0.538878463  0.082628469  0.946136450
     0.671836879  0.316878908  0.601010783
     0.171982067  0.177891862  0.650233043
     0.322686727  0.147329578  0.898132913
     0.818734771  0.017691302  0.853023196
     0.321815824  0.018193306  0.898951044
     0.820704813  0.146438429  0.854040257
     0.679502866  0.187238058  0.603216829
     0.177618525  0.306276096  0.637613928
     0.636475162  0.583715832  0.376189571
     0.133506843  0.584350880  0.370653407
     0.368275357  0.416659284  0.131648108
     0.870725808  0.416392348  0.124229582
     0.961197589  0.583932781  0.191923415
     0.462880536  0.585476771  0.059489974
     0.040730539  0.416847181  0.306507851
     0.539949067  0.417094482  0.438870339
     0.681143842  0.648220918  0.101376394
     0.178066866  0.519232370  0.146386237
     0.321334131  0.480908110  0.396110172
     0.824187563  0.352019586  0.348681755
     0.321691171  0.351856931  0.396125103
     0.823312423  0.480833136  0.348703293
     0.679574237  0.519319402  0.102793946
     0.178461518  0.648539712  0.146083412
     0.632143397  0.582892991  0.876929801
     0.138528850  0.582886750  0.870114318
     0.371286110  0.416477791  0.620370776
     0.857893139  0.416165621  0.623757837
     0.960298522  0.585443692  0.697654269
     0.461163057  0.583627967  0.554026936
     0.027869883  0.417370160  0.805210464
     0.539990980  0.415037205  0.951363000
     0.679458702  0.647414228  0.602310331
     0.178420044  0.526830093  0.637008665
     0.331563020  0.482506344  0.905889169
     0.812193879  0.351984510  0.849340783
     0.326543772  0.350068916  0.908397014
     0.809181844  0.480353367  0.847666912
     0.673999898  0.518208197  0.601545280
     0.172318739  0.655278958  0.650681917
     0.634562799  0.916618121  0.377352953
     0.134213064  0.916580372  0.373668241
     0.365697768  0.750453443  0.124054987
     0.865205444  0.751124787  0.127399307
     0.960902661  0.916621190  0.195535896
     0.460347682  0.916637739  0.057607026
     0.039054537  0.750377439  0.305425798
     0.539015577  0.749712841  0.445562728
     0.677640629  0.980927506  0.103570465
     0.177816382  0.852123687  0.148285484
     0.322483063  0.815028391  0.398177433
     0.822310565  0.685835646  0.351973853
     0.321157508  0.686170189  0.399072997
     0.821985089  0.814711611  0.353519199
     0.677487330  0.852255073  0.103578334
     0.177857246  0.981063658  0.148265331
     0.632692714  0.916586694  0.878193304
     0.134261904  0.916638553  0.873525323
     0.366336682  0.751393723  0.624332076
     0.864586328  0.750680287  0.628381345
     0.959964643  0.916585175  0.696112194
     0.460896442  0.916541442  0.555790704
     0.036779685  0.752831264  0.809429050
     0.538823594  0.750534577  0.946020254
     0.677516447  0.981088593  0.602693166
     0.176947248  0.852221290  0.647983813
     0.321608075  0.814891583  0.899015524
     0.820662371  0.686495859  0.853235323
     0.322691562  0.685735032  0.898351625
     0.818559011  0.815278093  0.853275805
     0.677673570  0.852202874  0.602654623
     0.176911280  0.981000837  0.647887006
     0.548332084  0.445530238  0.733699224

  ion indices of the primitive-cell ions
   primitive index   ion index
                 1           1
                 2           2
                 3           3
                 4           4
                 5           5
                 6           6
                 7           7
                 8           8
                 9           9
                10          10
                11          11
                12          12
                13          13
                14          14
                15          15
                16          16
                17          17
                18          18
                19          19
                20          20
                21          21
                22          22
                23          23
                24          24
                25          25
                26          26
                27          27
                28          28
                29          29
                30          30
                31          31
                32          32
                33          33
                34          34
                35          35
                36          36
                37          37
                38          38
                39          39
                40          40
                41          41
                42          42
                43          43
                44          44
                45          45
                46          46
                47          47
                48          48
                49          49
                50          50
                51          51
                52          52
                53          53
                54          54
                55          55
                56          56
                57          57
                58          58
                59          59
                60          60
                61          61
                62          62
                63          63
                64          64
                65          65
                66          66
                67          67
                68          68
                69          69
                70          70
                71          71
                72          72
                73          73
                74          74
                75          75
                76          76
                77          77
                78          78
                79          79
                80          80
                81          81
                82          82
                83          83
                84          84
                85          85
                86          86
                87          87
                88          88
                89          89
                90          90
                91          91
                92          92
                93          93
                94          94
                95          95
                96          96
                97          97
                98          98
                99          99
               100         100
               101         101
               102         102
               103         103
               104         104
               105         105
               106         106
               107         107
               108         108
               109         109
               110         110
               111         111
               112         112
               113         113
               114         114
               115         115
               116         116
               117         117
               118         118
               119         119
               120         120
               121         121
               122         122
               123         123
               124         124
               125         125
               126         126
               127         127
               128         128
               129         129
               130         130
               131         131
               132         132
               133         133
               134         134
               135         135
               136         136
               137         137
               138         138
               139         139
               140         140
               141         141
               142         142
               143         143
               144         144
               145         145

----------------------------------------------------------------------------------------



 KPOINTS: KPOINTS created by Atomic Simulation Env

Automatic generation of k-mesh.
 Grid dimensions read from file:
 generate k-points for:    3    1    3

 Generating k-lattice:

  Cartesian coordinates                     Fractional coordinates (reciprocal lattice)
     0.032031878  0.000000000  0.000000000     0.333333333  0.000000000  0.000000000
     0.000000000  0.053601771  0.000000000     0.000000000  1.000000000  0.000000000
     0.000000000  0.000000000  0.033691133     0.000000000  0.000000000  0.333333333

  Length of vectors
     0.032031878  0.053601771  0.033691133

  Shift w.r.t. Gamma in fractional coordinates (k-lattice)
     0.000000000  0.000000000  0.000000000

 
 Subroutine IBZKPT returns following result:
 ===========================================
 
 Found      5 irreducible k-points:
 
 Following reciprocal coordinates:
            Coordinates               Weight
  0.000000  0.000000  0.000000      1.000000
  0.333333  0.000000  0.000000      2.000000
  0.000000  0.000000  0.333333      2.000000
  0.333333  0.000000  0.333333      2.000000
 -0.333333  0.000000  0.333333      2.000000
 
 Following cartesian coordinates:
            Coordinates               Weight
  0.000000  0.000000  0.000000      1.000000
  0.032032  0.000000  0.000000      2.000000
  0.000000  0.000000  0.033691      2.000000
  0.032032  0.000000  0.033691      2.000000
 -0.032032  0.000000  0.033691      2.000000
 


--------------------------------------------------------------------------------------------------------




 Dimension of arrays:
   k-points           NKPTS =      5   k-points in BZ     NKDIM =      5   number of bands    NBANDS=    696
   number of dos      NEDOS =    301   number of ions     NIONS =    145
   non local maximal  LDIM  =      6   non local SUM 2l+1 LMDIM =     18
   total plane-waves  NPLWV = 896000
   max r-space proj   IRMAX =   5954   max aug-charges    IRDMAX=  14393
   dimension x,y,z NGX =    80 NGY =  140 NGZ =   80
   dimension x,y,z NGXF=   160 NGYF=  280 NGZF=  160
   support grid    NGXF=   160 NGYF=  280 NGZF=  160
   ions per type =              24  24  96   1
   NGX,Y,Z   is equivalent  to a cutoff of  12.78, 12.48, 13.44 a.u.
   NGXF,Y,Z  is equivalent  to a cutoff of  25.56, 24.95, 26.88 a.u.

 SYSTEM =  unknown system                          
 POSCAR =  Fe P  O  Na                             

 Startparameter for this run:
   NWRITE =      2    write-flag & timer
   PREC   = accura    normal or accurate (medium, high low for compatibility)
   ISTART =      1    job   : 0-new  1-cont  2-samecut
   ICHARG =      0    charge: 1-file 2-atom 10-const
   ISPIN  =      2    spin polarized calculation?
   LNONCOLLINEAR =      F non collinear calculations
   LSORBIT =      F    spin-orbit coupling
   INIWAV =      1    electr: 0-lowe 1-rand  2-diag
   LASPH  =      T    aspherical Exc in radial PAW
 Electronic Relaxation 1
   ENCUT  =  520.0 eV  38.22 Ry    6.18 a.u.  19.35 34.69 18.40*2*pi/ulx,y,z
   ENINI  =  520.0     initial cutoff
   ENAUG  =  605.4 eV  augmentation charge cutoff
   NELM   =    300;   NELMIN=  8; NELMDL=  0     # of ELM steps 
   EDIFF  = 0.1E-05   stopping-criterion for ELM
   LREAL  =      T    real-space projection
   NLSPLINE    = F    spline interpolate recip. space projectors
   LCOMPAT=      F    compatible to vasp.4.4
   GGA_COMPAT  = T    GGA compatible to vasp.4.4-vasp.4.6
   LMAXPAW     = -100 max onsite density
   LMAXMIX     =    4 max onsite mixed and CHGCAR
   VOSKOWN=      0    Vosko Wilk Nusair interpolation
   ROPT   =   -0.00025  -0.00025  -0.00025  -0.00025
 Ionic relaxation
   EDIFFG = -.2E-01   stopping-criterion for IOM
   NSW    =      1    number of steps for IOM
   NBLOCK =      1;   KBLOCK =      1    inner block; outer block 
   IBRION =      2    ionic relax: 0-MD 1-quasi-New 2-CG
   NFREE  =      1    steps in history (QN), initial steepest desc. (CG)
   ISIF   =      2    stress and relaxation
   IWAVPR =     11    prediction:  0-non 1-charg 2-wave 3-comb
   ISYM   =      0    0-nonsym 1-usesym 2-fastsym
   LCORR  =      T    Harris-Foulkes like correction to forces

   POTIM  = 0.5000    time-step for ionic-motion
   TEIN   =    0.0    initial temperature
   TEBEG  =    0.0;   TEEND  =   0.0 temperature during run
   SMASS  =  -3.00    Nose mass-parameter (am)
   estimated Nose-frequenzy (Omega)   =  0.10E-29 period in steps = 0.13E+47 mass=  -0.247E-26a.u.
   SCALEE = 1.0000    scale energy and forces
   NPACO  =    256;   APACO  = 10.0  distance and # of slots for P.C.
   PSTRESS=    0.0 pullay stress

  Mass of Ions in am
   POMASS =  55.85 30.97 16.00 22.99
  Ionic Valenz
   ZVAL   =  14.00  5.00  6.00  7.00
  Atomic Wigner-Seitz radii
   RWIGS  =  -1.00 -1.00 -1.00 -1.00
  virtual crystal weights 
   VCA    =   1.00  1.00  1.00  1.00
   NELECT =    1039.0000    total number of electrons
   NUPDOWN=     119.0000    fix difference up-down

 DOS related values:
   EMIN   =  10.00;   EMAX   =-10.00  energy-range for DOS
   EFERMI =   0.00;   METHOD = LEGACY      
   ISMEAR =     0;   SIGMA  =   0.05  broadening in eV -4-tet -1-fermi 0-gaus

 Electronic relaxation 2 (details)
   IALGO  =     58    algorithm
   LDIAG  =      T    sub-space diagonalisation (order eigenvalues)
   LSUBROT=      F    optimize rotation matrix (better conditioning)
   TURBO    =      0    0=normal 1=particle mesh
   IRESTART =      0    0=no restart 2=restart with 2 vectors
   NREBOOT  =      0    no. of reboots
   NMIN     =      0    reboot dimension
   EREF     =   0.00    reference energy to select bands
   IMIX   =      4    mixing-type and parameters
     AMIX     =   0.40;   BMIX     =  1.00
     AMIX_MAG =   1.60;   BMIX_MAG =  1.00
     AMIN     =   0.10
     WC   =   100.;   INIMIX=   1;  MIXPRE=   1;  MAXMIX= -45

 Intra band minimization:
   WEIMIN = 0.0010     energy-eigenvalue tresh-hold
   EBREAK =  0.36E-09  absolut break condition
   DEPER  =   0.30     relativ break condition  

   TIME   =   0.05     timestep for ELM

  volume/ion in A,a.u.               =      13.25        89.39
  Fermi-wavevector in a.u.,A,eV,Ry     =   1.333890  2.520686 24.208324  1.779262
  Thomas-Fermi vector in A             =   2.462713

 Write flags
   LWAVE        =      T    write WAVECAR
   LDOWNSAMPLE  =      F    k-point downsampling of WAVECAR
   LCHARG       =      T    write CHGCAR
   LVTOT        =      F    write LOCPOT, total local potential
   LVHAR        =      F    write LOCPOT, Hartree potential only
   LELF         =      F    write electronic localiz. function (ELF)
   LORBIT       =     12    0 simple, 1 ext, 2 COOP (PROOUT), +10 PAW based schemes


 Dipole corrections
   LMONO  =      F    monopole corrections only (constant potential shift)
   LDIPOL =      F    correct potential (dipole corrections)
   IDIPOL =      0    1-x, 2-y, 3-z, 4-all directions 
   EPSILON=  1.0000000 bulk dielectric constant

 LDA+U is selected, type is set to LDAUTYPE =  2
   angular momentum for each species LDAUL =     2   -1   -1   -1
   U (eV)           for each species LDAUU =   5.3  0.0  0.0  0.0
   J (eV)           for each species LDAUJ =   0.0  0.0  0.0  0.0
 Exchange correlation treatment:
   GGA     =    PE    GGA type
   LEXCH   =     8    internal setting for exchange type
   LIBXC   =     F    Libxc                    
   VOSKOWN =     0    Vosko Wilk Nusair interpolation
   LHFCALC =     F    Hartree Fock is set to
   LHFONE  =     F    Hartree Fock one center treatment
   AEXX    =    0.0000 exact exchange contribution

 Linear response parameters
   LEPSILON=     F    determine dielectric tensor
   LRPA    =     F    only Hartree local field effects (RPA)
   LNABLA  =     F    use nabla operator in PAW spheres
   LVEL    =     F    velocity operator in full k-point grid
   CSHIFT  =0.1000    complex shift for real part using Kramers Kronig
   OMEGAMAX=  -1.0    maximum frequency
   DEG_THRESHOLD= 0.2000000E-02 threshold for treating states as degnerate
   RTIME   =   -0.100 relaxation time in fs
  (WPLASMAI=    0.000 imaginary part of plasma frequency in eV, 0.658/RTIME)
   DFIELD  = 0.0000000 0.0000000 0.0000000 field for delta impulse in time

  Optional k-point grid parameters
   LKPOINTS_OPT  =     F    use optional k-point grid
   KPOINTS_OPT_MODE=     1    mode for optional k-point grid

 Orbital magnetization related:
   ORBITALMAG=     F  switch on orbital magnetization
   LCHIMAG   =     F  perturbation theory with respect to B field
   DQ        =  0.001000  dq finite difference perturbation B field
   LLRAUG    =     F  two centre corrections for induced B field
   LBONE     =     F  B-component reconstruction in AE one-centre
   LVGVCALC  =     T  calculate vGv susceptibility
   LVGVAPPL  =     F  apply vGv susceptibility instead of pGv for G=0

 Random number generation:
   RANDOM_GENERATOR = DEFAULT
   PCG_SEED         = not used


--------------------------------------------------------------------------------------------------------


 conjugate gradient relaxation of ions
 charge density and potential will be updated during run
 spin polarized calculation
 Conjugate gradient for all bands (Freysoldt, et al. PRB 79, 241103 (2009))
 preconditioned conjugated gradient                                        
 perform sub-space diagonalisation
    before iterative eigenvector-optimisation
 modified Broyden-mixing scheme, WC =      100.0
 initial mixing is a Kerker type mixing with AMIX =  0.4000 and BMIX =      1.0000
 Hartree-type preconditioning will be used
 using additional bands          176
 real space projection scheme for non local part
 use partial core corrections
 no Harris-corrections to forces 
 use gradient corrections 
 use of overlap-Matrix (Vanderbilt PP)
 Gauss-broadening in eV      SIGMA  =   0.05


--------------------------------------------------------------------------------------------------------


  energy-cutoff  :      520.00
  volume of cell :     1920.79
      direct lattice vectors                 reciprocal lattice vectors
    10.406300000  0.000000000  0.000000000     0.096095634  0.000000000  0.000000000
     0.000000000 18.656100000  0.000000000     0.000000000  0.053601771  0.000000000
     0.000000000  0.000000000  9.893800000     0.000000000  0.000000000  0.101073400

  length of vectors
    10.406300000 18.656100000  9.893800000     0.096095634  0.053601771  0.101073400



 old parameters found on file WAVECAR:
  energy-cutoff  :      520.00
  volume of cell :     1920.79
      direct lattice vectors                 reciprocal lattice vectors
    10.406300000  0.000000000  0.000000000     0.096095634  0.000000000  0.000000000
     0.000000000 18.656100000  0.000000000     0.000000000  0.053601771  0.000000000
     0.000000000  0.000000000  9.893800000     0.000000000  0.000000000  0.101073400

  length of vectors


 k-points in units of 2pi/SCALE and weight: KPOINTS created by Atomic Simulation Env
   0.00000000  0.00000000  0.00000000       0.111
   0.03203188  0.00000000  0.00000000       0.222
   0.00000000  0.00000000  0.03369113       0.222
   0.03203188  0.00000000  0.03369113       0.222
  -0.03203188  0.00000000  0.03369113       0.222

 k-points in reciprocal lattice and weights: KPOINTS created by Atomic Simulation Env
   0.00000000  0.00000000  0.00000000       0.111
   0.33333333  0.00000000  0.00000000       0.222
   0.00000000  0.00000000  0.33333333       0.222
   0.33333333  0.00000000  0.33333333       0.222
  -0.33333333  0.00000000  0.33333333       0.222

 position of ions in fractional coordinates (direct lattice) 
   0.78209642  0.24670574  0.25476796
   0.27900877  0.24975322  0.49211858
   0.21969047  0.08339384  0.24435754
   0.71825530  0.08181836  0.00728050
   0.78029697  0.24696424  0.75759569
   0.28273821  0.25078665  0.99312069
   0.21792743  0.08197346  0.74440898
   0.71887194  0.08222077  0.50664688
   0.78225450  0.58533804  0.25425201
   0.27903592  0.58308823  0.49141387
   0.21928139  0.41639255  0.24557310
   0.72141763  0.41488372  0.01040819
   0.78164425  0.58721986  0.75720815
   0.28322731  0.58207059  0.99342605
   0.20846361  0.41509862  0.73706755
   0.72316545  0.41357467  0.49132950
   0.78106019  0.91667722  0.25684594
   0.28059075  0.91664948  0.49406927
   0.21963418  0.75002603  0.24435764
   0.71806245  0.75166411  0.00747940
   0.77947550  0.91674436  0.75748446
   0.28037721  0.91670553  0.99461594
   0.21800586  0.75132286  0.74454304
   0.71908544  0.75136653  0.50632681
   0.60762218  0.24875837  0.03124255
   0.10720823  0.24905991  0.21852147
   0.39274389  0.08251284  0.47168889
   0.89338712  0.08244740  0.27992574
   0.60615205  0.25051781  0.52885947
   0.10660598  0.24521097  0.71849083
   0.39259036  0.08292473  0.97112294
   0.89173644  0.08184594  0.78125601
   0.60787309  0.58384349  0.03092961
   0.10739222  0.58412186  0.21789969
   0.39356188  0.41635008  0.46731193
   0.89610724  0.41677943  0.27709940
   0.60714565  0.58380945  0.52806219
   0.10761682  0.58767568  0.71840730
   0.39173113  0.41577474  0.97873997
   0.88495079  0.41644080  0.77693301
   0.60590529  0.91662857  0.03089406
   0.10708479  0.91660899  0.22098517
   0.39273607  0.75053356  0.47175746
   0.89328901  0.75051888  0.27983985
   0.60657618  0.91662563  0.52985436
   0.10612633  0.91662138  0.72108741
   0.39253107  0.75021117  0.97121107
   0.89187795  0.75140428  0.78110135
   0.63676633  0.25014152  0.37684714
   0.13339153  0.24864980  0.37123711
   0.36554266  0.08277607  0.12392238
   0.86524740  0.08205835  0.12754143
   0.96101004  0.24901633  0.19247376
   0.46268436  0.24768467  0.05971062
   0.03910226  0.08271935  0.30553237
   0.53910924  0.08360047  0.44583252
   0.67987606  0.31334996  0.10297589
   0.17843484  0.18476881  0.14631843
   0.32079685  0.14660718  0.39859204
   0.82207909  0.01832833  0.35360954
   0.32295208  0.01783769  0.39825440
   0.82234049  0.14712102  0.35238277
   0.68047891  0.18458617  0.10335737
   0.17751595  0.31409746  0.14735948
   0.63336110  0.24852689  0.87819968
   0.13727729  0.24956217  0.87025692
   0.36617340  0.08181736  0.62421152
   0.86405236  0.08279095  0.62852401
   0.95951135  0.24754011  0.69721038
   0.46021089  0.24869930  0.55272438
   0.03676073  0.08033888  0.80897682
   0.53887846  0.08262847  0.94613645
   0.67183688  0.31687891  0.60101078
   0.17198207  0.17789186  0.65023304
   0.32268673  0.14732958  0.89813291
   0.81873477  0.01769130  0.85302320
   0.32181582  0.01819331  0.89895104
   0.82070481  0.14643843  0.85404026
   0.67950287  0.18723806  0.60321683
   0.17761853  0.30627610  0.63761393
   0.63647516  0.58371583  0.37618957
   0.13350684  0.58435088  0.37065341
   0.36827536  0.41665928  0.13164811
   0.87072581  0.41639235  0.12422958
   0.96119759  0.58393278  0.19192342
   0.46288054  0.58547677  0.05948997
   0.04073054  0.41684718  0.30650785
   0.53994907  0.41709448  0.43887034
   0.68114384  0.64822092  0.10137639
   0.17806687  0.51923237  0.14638624
   0.32133413  0.48090811  0.39611017
   0.82418756  0.35201959  0.34868176
   0.32169117  0.35185693  0.39612510
   0.82331242  0.48083314  0.34870329
   0.67957424  0.51931940  0.10279395
   0.17846152  0.64853971  0.14608341
   0.63214340  0.58289299  0.87692980
   0.13852885  0.58288675  0.87011432
   0.37128611  0.41647779  0.62037078
   0.85789314  0.41616562  0.62375784
   0.96029852  0.58544369  0.69765427
   0.46116306  0.58362797  0.55402694
   0.02786988  0.41737016  0.80521046
   0.53999098  0.41503721  0.95136300
   0.67945870  0.64741423  0.60231033
   0.17842004  0.52683009  0.63700866
   0.33156302  0.48250634  0.90588917
   0.81219388  0.35198451  0.84934078
   0.32654377  0.35006892  0.90839701
   0.80918184  0.48035337  0.84766691
   0.67399990  0.51820820  0.60154528
   0.17231874  0.65527896  0.65068192
   0.63456280  0.91661812  0.37735295
   0.13421306  0.91658037  0.37366824
   0.36569777  0.75045344  0.12405499
   0.86520544  0.75112479  0.12739931
   0.96090266  0.91662119  0.19553590
   0.46034768  0.91663774  0.05760703
   0.03905454  0.75037744  0.30542580
   0.53901558  0.74971284  0.44556273
   0.67764063  0.98092751  0.10357047
   0.17781638  0.85212369  0.14828548
   0.32248306  0.81502839  0.39817743
   0.82231057  0.68583565  0.35197385
   0.32115751  0.68617019  0.39907300
   0.82198509  0.81471161  0.35351920
   0.67748733  0.85225507  0.10357833
   0.17785725  0.98106366  0.14826533
   0.63269271  0.91658669  0.87819330
   0.13426190  0.91663855  0.87352532
   0.36633668  0.75139372  0.62433208
   0.86458633  0.75068029  0.62838135
   0.95996464  0.91658517  0.69611219
   0.46089644  0.91654144  0.55579070
   0.03677968  0.75283126  0.80942905
   0.53882359  0.75053458  0.94602025
   0.67751645  0.98108859  0.60269317
   0.17694725  0.85222129  0.64798381
   0.32160807  0.81489158  0.89901552
   0.82066237  0.68649586  0.85323532
   0.32269156  0.68573503  0.89835162
   0.81855901  0.81527809  0.85327580
   0.67767357  0.85220287  0.60265462
   0.17691128  0.98100084  0.64788701
   0.54833208  0.44553024  0.73369922

 position of ions in cartesian coordinates  (Angst):
   8.13872995  4.60256704  2.52062327
   2.90344893  4.65942099  4.86892278
   2.28616489  1.55580386  2.41762467
   7.47438014  1.52641145  0.07203179
   8.12000434  4.60738964  7.49550028
   2.94225864  4.67870086  9.82573747
   2.26781823  1.52930511  7.36503360
   7.48079705  1.53391890  5.01266287
   8.14037496 10.92012503  2.51551856
   2.90373148 10.87815237  4.86195059
   2.28190792  7.76826102  2.42965111
   7.50728833  7.74011217  0.10297657
   8.13402457 10.95523239  7.49166596
   2.94734838 10.85916705  9.82875865
   2.16933490  7.74412139  7.29239890
   7.52547659  7.71569045  4.86111580
   8.12794661 17.10162185  2.54118232
   2.91991149 17.10110435  4.88822254
   2.28557921 13.99256054  2.41762565
   7.47237330 14.02312076  0.07399972
   8.11145594 17.10287445  7.49439979
   2.91768940 17.10215012  9.84053120
   2.26863438 14.01675436  7.36635992
   7.48301886 14.01756919  5.00949622
   6.32309868  4.64086102  0.30910757
   1.11564098  4.64648666  2.16200771
   4.08701077  1.53936776  4.66679550
   9.29685435  1.53814694  2.76952924
   6.30780010  4.67368532  5.23242985
   1.10937379  4.57468032  7.10860459
   4.08541306  1.54705205  9.60809617
   9.27967692  1.52692609  7.72959070
   6.32570972 10.89224254  0.30601139
   1.11755563 10.89743588  2.15585597
   4.09552301  7.76746876  4.62349073
   9.32516079  7.77547881  2.74156606
   6.31813982 10.89160747  5.22454172
   1.11989289 10.96373627  7.10777818
   4.07647170  7.75673517  9.68345751
   9.20906342  7.76916116  7.68681984
   6.30523222 17.10071422  0.30565967
   1.11435645 17.10034901  2.18638303
   4.08692932 14.00202912  4.66747397
   9.29583339 14.00175526  2.76867947
   6.31221375 17.10065948  5.24227309
   1.10438244 17.10058016  7.13429463
   4.08479604 13.99601452  9.60896812
   9.28114952 14.01827347  7.72806055
   6.62638150  4.66666524  3.72845024
   1.38811228  4.63883548  3.67294571
   3.80394657  1.54427869  1.22606322
   9.00402397  1.53088871  1.26186936
  10.00055875  4.64567363  1.90429687
   4.81483224  4.62083000  0.59076498
   0.40690984  1.54322037  3.02287614
   5.61013250  1.55965875  4.41097781
   7.07499419  5.84588818  1.01882291
   1.85684643  3.44706548  1.44764525
   3.33830829  2.73511824  3.94358996
   8.55480163  0.34193509  3.49854202
   3.36073622  0.33278170  3.94024938
   8.55752183  2.74470446  3.48640463
   7.08126768  3.44365805  1.02259710
   1.84728422  5.85983361  1.45794519
   6.59094562  4.63654252  8.68873200
   1.42854867  4.65585687  8.61014794
   3.81051026  1.52639291  6.17582393
   8.99158809  1.54455627  6.21849087
   9.98496299  4.61813304  6.89806001
   4.78909257  4.63975906  5.46854452
   0.38254317  1.49881018  8.00385482
   5.60773095  1.54152499  9.36088481
   6.99133611  5.91172460  5.94628049
   1.78969698  3.31876837  6.43327568
   3.35797489  2.74859534  8.88594741
   8.51999965  0.33005070  8.43964090
   3.34891200  0.33941614  8.89404184
   8.54050050  2.73196998  8.44970349
   7.07111068  3.49313193  5.96810666
   1.84835166  5.71391748  6.30842468
   6.62335148 10.88986093  3.72194437
   1.38931226 10.90170845  3.66717068
   3.83238385  7.77323727  1.30250005
   9.06103397  7.76825728  1.22910264
  10.00251047 10.89390836  1.89885188
   4.81687372 10.92271318  0.58858191
   0.42385421  7.77674268  3.03252737
   5.61887198  7.78135637  4.34209536
   7.08818716 12.09327426  1.00299776
   1.85301722  9.68685102  1.44831615
   3.34389937  8.97186978  3.91903481
   8.57674304  6.56731260  3.44978755
   3.34761484  6.56427809  3.91918254
   8.56763607  8.97047107  3.45000064
   7.07185339  9.68847470  1.01702275
   1.85712409 12.09922171  1.44532007
   6.57827384 10.87450992  8.67616807
   1.44157278 10.87439350  8.60873704
   3.86371464  7.76985132  6.13782439
   8.92749338  7.76402743  6.17133529
   9.99315451 10.92209606  6.90245180
   4.79900112 10.88822171  5.48143170
   0.29002236  7.78649944  7.96659129
   5.61930814  7.74297561  9.41259525
   7.07065109 12.07822458  5.95913795
   1.85669250  9.82859489  6.30243633
   3.45034426  9.00168661  8.96268626
   8.45193316  6.56665822  8.40320784
   3.39811245  6.53092071  8.98749837
   8.42058902  8.96152045  8.38664689
   7.01384514  9.66774395  5.95156869
   1.79320049 12.22494976  6.43771675
   6.60345085 17.10051934  3.73345465
   1.39666141 17.09981507  3.69699885
   3.80556068 14.00053447  1.22737523
   9.00358741 14.01305915  1.26046326
   9.99944136 17.10057658  1.93459305
   4.79051609 17.10088532  0.56995240
   0.40641322 13.99911653  3.02182176
   5.60915780 13.98671773  4.40830852
   7.05173168 18.30028164  1.02470547
   1.85041062 15.89730472  1.46710692
   3.35585550 15.20525116  3.93948789
   8.55721044 12.79501840  3.48235890
   3.34206138 12.80125967  3.94834842
   8.55382343 15.19934128  3.49764826
   7.05013641 15.89975587  1.02478332
   1.85083586 18.30282171  1.46690754
   6.58399019 17.09993301  8.68866891
   1.39716965 17.10090052  8.64248484
   3.81220941 14.01807643  6.17701669
   8.99714471 14.00476650  6.21707935
   9.98968007 17.09990468  6.88719482
   4.79622665 17.09908880  5.49888207
   0.38274043 14.04489535  8.00832914
   5.60715996 14.00204813  9.35973519
   7.05043940 18.30328690  5.96292565
   1.84136615 15.89912561  6.41102224
   3.34675011 15.20269886  8.89467979
   8.54005883 12.80733540  8.44173964
   3.35802520 12.79314133  8.88811130
   8.51817064 15.20990963  8.44214016
   7.05207447 15.89878204  5.96254431
   1.84099185 18.30164971  6.41006446
   5.70610816  8.31185667  7.25907339



--------------------------------------------------------------------------------------------------------


 k-point   1 :   0.0000 0.0000 0.0000  plane waves:   51751
 k-point   2 :   0.3333 0.0000 0.0000  plane waves:   51719
 k-point   3 :   0.0000 0.0000 0.3333  plane waves:   51701
 k-point   4 :   0.3333 0.0000 0.3333  plane waves:   51716
 k-point   5 :  -0.3333 0.0000 0.3333  plane waves:   51716

 maximum and minimum number of plane-waves per node :     12949    12909

 maximum number of plane-waves:     51751
 maximum index in each direction: 
   IXMAX=   19   IYMAX=   34   IZMAX=   18
   IXMIN=  -19   IYMIN=  -34   IZMIN=  -18


 real space projection operators:
  total allocation   :      41636.19 KBytes
  max/ min on nodes  :      10443.33      10370.95


 parallel 3D FFT for wavefunctions:
    minimum data exchange during FFTs selected (reduces bandwidth)
 parallel 3D FFT for charge:
    minimum data exchange during FFTs selected (reduces bandwidth)


 total amount of memory used by VASP MPI-rank0   280310. kBytes
=======================================================================

   base      :      30000. kBytes
   nonlr-proj:      27492. kBytes
   fftplans  :       9556. kBytes
   grid      :      26700. kBytes
   one-center:       1150. kBytes
   wavefun   :     185412. kBytes

     INWAV:  cpu time     66.7538: real time     67.1704
 Broyden mixing: mesh for mixing (old mesh)
   NGX = 39   NGY = 69   NGZ = 37
  (NGX  =160   NGY  =280   NGZ  =160)
  gives a total of  99567 points

 charge density for first step will be calculated from the start-wavefunctions


--------------------------------------------------------------------------------------------------------


 Maximum index for non-local projection operator         1447
 Maximum index for augmentation-charges          699 (set IRDMAX)


--------------------------------------------------------------------------------------------------------


 initial charge from wavefunction
 First call to EWALD:  gamma=   0.143
 Maximum number of real-space cells 3x 2x 3
 Maximum number of reciprocal cells 2x 4x 2

    FEWALD:  cpu time      0.0276: real time      0.0277


--------------------------------------- Ionic step        1  -------------------------------------------




--------------------------------------- Iteration      1(   1)  ---------------------------------------


    POTLOK:  cpu time      2.3123: real time      2.3247
    SETDIJ:  cpu time      0.0107: real time      0.0109
    TRIAL :  cpu time      5.1395: real time      5.1784
    CORREC:  cpu time      9.7121: real time      9.7807
    CHARGE:  cpu time      0.1852: real time      0.1870
    --------------------------------------------
      LOOP:  cpu time     17.3884: real time     17.5364

 eigenvalue-minimisations  :     0
 total energy-change (2. order) :-0.1016990E+04  (-0.1926885E-01)
 number of electron    1039.0000091 magnetization     119.0000023
 augmentation part      257.1512545 magnetization      80.6974739

 Free energy of the ion-electron system (eV)
  ---------------------------------------------------
  alpha Z        PSCENC =      2648.81395470
  Ewald energy   TEWEN  =    -57944.75563044
  -Hartree energ DENC   =    -40782.62850945
  -exchange      EXHF   =         0.00000000
  -V(xc)+E(xc)   XCENC  =      4587.18637485
  PAW double counting   =    154090.89151455  -156151.64802599
  entropy T*S    EENTRO =        -0.00000000
  eigenvalues    EBANDS =    -12940.29096264
  atomic energy  EATOM  =    105475.44126576
  ---------------------------------------------------
  free energy    TOTEN  =     -1016.99001866 eV

  energy without entropy =    -1016.99001866  energy(sigma->0) =    -1016.99001866


--------------------------------------------------------------------------------------------------------




--------------------------------------- Iteration      1(   2)  ---------------------------------------


    POTLOK:  cpu time      0.1088: real time      0.1097
    SETDIJ:  cpu time      0.4429: real time      0.4452
    TRIAL :  cpu time      5.0887: real time      5.1305
    CORREC:  cpu time     13.3025: real time     13.3884
    CHARGE:  cpu time      0.1854: real time      0.1871
    --------------------------------------------
      LOOP:  cpu time     19.1393: real time     19.2719

 eigenvalue-minimisations  :     0
 total energy-change (2. order) :-0.3888754E-01  (-0.5774143E-03)
 number of electron    1039.0000091 magnetization     119.0000023
 augmentation part      257.1524799 magnetization      80.6977459

 Free energy of the ion-electron system (eV)
  ---------------------------------------------------
  alpha Z        PSCENC =      2648.81395470
  Ewald energy   TEWEN  =    -57944.75563044
  -Hartree energ DENC   =    -40782.29209091
  -exchange      EXHF   =         0.00000000
  -V(xc)+E(xc)   XCENC  =      4587.18352268
  PAW double counting   =    154088.96540304  -156149.72897115
  entropy T*S    EENTRO =        -0.00000000
  eigenvalues    EBANDS =    -12940.65635987
  atomic energy  EATOM  =    105475.44126576
  ---------------------------------------------------
  free energy    TOTEN  =     -1017.02890620 eV

  energy without entropy =    -1017.02890620  energy(sigma->0) =    -1017.02890620


--------------------------------------------------------------------------------------------------------




--------------------------------------- Iteration      1(   3)  ---------------------------------------


    POTLOK:  cpu time      0.1106: real time      0.1112
    SETDIJ:  cpu time      0.4421: real time      0.4442
    TRIAL :  cpu time      5.1129: real time      5.1510
    CORREC:  cpu time      2.4309: real time      2.4467
    CHARGE:  cpu time      0.1856: real time      0.1872
    --------------------------------------------
      LOOP:  cpu time      8.2829: real time      8.3413

 eigenvalue-minimisations  :     0
 total energy-change (2. order) :-0.2514385E-01  (-0.3214525E-02)
 number of electron    1039.0000091 magnetization     119.0000023
 augmentation part      257.1526838 magnetization      80.6976572

 Free energy of the ion-electron system (eV)
  ---------------------------------------------------
  alpha Z        PSCENC =      2648.81395470
  Ewald energy   TEWEN  =    -57944.75563044
  -Hartree energ DENC   =    -40781.98485677
  -exchange      EXHF   =         0.00000000
  -V(xc)+E(xc)   XCENC  =      4587.18448816
  PAW double counting   =    154087.46967808  -156148.25485594
  entropy T*S    EENTRO =        -0.00000000
  eigenvalues    EBANDS =    -12940.96809360
  atomic energy  EATOM  =    105475.44126576
  ---------------------------------------------------
  free energy    TOTEN  =     -1017.05405005 eV

  energy without entropy =    -1017.05405005  energy(sigma->0) =    -1017.05405005


--------------------------------------------------------------------------------------------------------




--------------------------------------- Iteration      1(   4)  ---------------------------------------


    POTLOK:  cpu time      0.1090: real time      0.1096
    SETDIJ:  cpu time      0.4430: real time      0.4452
    TRIAL :  cpu time      5.1112: real time      5.1499
    CORREC:  cpu time      2.4273: real time      2.4439
    CHARGE:  cpu time      0.1853: real time      0.1871
    --------------------------------------------
      LOOP:  cpu time      8.2767: real time      8.3365

 eigenvalue-minimisations  :     0
 total energy-change (2. order) :-0.3215097E-02  (-0.1971966E-02)
 number of electron    1039.0000091 magnetization     119.0000023
 augmentation part      257.1526065 magnetization      80.6973964

 Free energy of the ion-electron system (eV)
  ---------------------------------------------------
  alpha Z        PSCENC =      2648.81395470
  Ewald energy   TEWEN  =    -57944.75563044
  -Hartree energ DENC   =    -40782.05919563
  -exchange      EXHF   =         0.00000000
  -V(xc)+E(xc)   XCENC  =      4587.18666801
  PAW double counting   =    154087.56311124  -156148.35091348
  entropy T*S    EENTRO =        -0.00000000
  eigenvalues    EBANDS =    -12940.89652530
  atomic energy  EATOM  =    105475.44126576
  ---------------------------------------------------
  free energy    TOTEN  =     -1017.05726515 eV

  energy without entropy =    -1017.05726515  energy(sigma->0) =    -1017.05726515


--------------------------------------------------------------------------------------------------------




--------------------------------------- Iteration      1(   5)  ---------------------------------------


    POTLOK:  cpu time      0.1092: real time      0.1098
    SETDIJ:  cpu time      0.4460: real time      0.4482
    TRIAL :  cpu time      9.1179: real time      9.1780
    CORREC:  cpu time      2.4291: real time      2.4457
    CHARGE:  cpu time      0.1855: real time      0.1873
    --------------------------------------------
      LOOP:  cpu time     12.2886: real time     12.3699

 eigenvalue-minimisations  :     0
 total energy-change (2. order) :-0.1972458E-02  (-0.8185497E-03)
 number of electron    1039.0000091 magnetization     119.0000023
 augmentation part      257.1522768 magnetization      80.6970993

 Free energy of the ion-electron system (eV)
  ---------------------------------------------------
  alpha Z        PSCENC =      2648.81395470
  Ewald energy   TEWEN  =    -57944.75563044
  -Hartree energ DENC   =    -40782.21547305
  -exchange      EXHF   =         0.00000000
  -V(xc)+E(xc)   XCENC  =      4587.18789164
  PAW double counting   =    154087.66750078  -156148.44832253
  entropy T*S    EENTRO =        -0.00000000
  eigenvalues    EBANDS =    -12940.75042446
  atomic energy  EATOM  =    105475.44126576
  ---------------------------------------------------
  free energy    TOTEN  =     -1017.05923760 eV

  energy without entropy =    -1017.05923760  energy(sigma->0) =    -1017.05923760


--------------------------------------------------------------------------------------------------------




--------------------------------------- Iteration      1(   6)  ---------------------------------------


    POTLOK:  cpu time      0.1074: real time      0.1083
    SETDIJ:  cpu time      0.4431: real time      0.4453
    TRIAL :  cpu time      5.1047: real time      5.1432
    CORREC:  cpu time      2.4161: real time      2.4323
    CHARGE:  cpu time      0.1851: real time      0.1868
    --------------------------------------------
      LOOP:  cpu time      8.2577: real time      8.3284

 eigenvalue-minimisations  :     0
 total energy-change (2. order) :-0.8183631E-03  (-0.4784676E-03)
 number of electron    1039.0000091 magnetization     119.0000023
 augmentation part      257.1521891 magnetization      80.6969340

 Free energy of the ion-electron system (eV)
  ---------------------------------------------------
  alpha Z        PSCENC =      2648.81395470
  Ewald energy   TEWEN  =    -57944.75563044
  -Hartree energ DENC   =    -40782.25672256
  -exchange      EXHF   =         0.00000000
  -V(xc)+E(xc)   XCENC  =      4587.18598637
[...]
      0.42385      7.77674      3.03253         0.003594      0.002090     -0.010838
      5.61887      7.78136      4.34210        -0.021227      0.010942     -0.003446
      7.08819     12.09327      1.00300         0.005197     -0.005718     -0.005354
      1.85302      9.68685      1.44832         0.008375      0.001127      0.000114
      3.34390      8.97187      3.91903         0.008438     -0.019408      0.003080
      8.57674      6.56731      3.44979         0.001818     -0.001164     -0.008136
      3.34761      6.56428      3.91918         0.006623      0.014698      0.007701
      8.56764      8.97047      3.45000        -0.002423     -0.001921     -0.010805
      7.07185      9.68847      1.01702         0.002375     -0.009682     -0.001530
      1.85712     12.09922      1.44532        -0.003691      0.003850     -0.003591
      6.57827     10.87451      8.67617        -0.005156     -0.012609     -0.010242
      1.44157     10.87439      8.60874         0.002759     -0.007246     -0.002905
      3.86371      7.76985      6.13782         0.006975     -0.001321     -0.019566
      8.92749      7.76403      6.17134         0.005449     -0.005758     -0.004967
      9.99315     10.92210      6.90245         0.002211     -0.003805      0.000218
      4.79900     10.88822      5.48143        -0.001928     -0.005378      0.001381
      0.29002      7.78650      7.96659        -0.003749      0.004190     -0.000272
      5.61931      7.74298      9.41260        -0.004337     -0.017077      0.004776
      7.07065     12.07822      5.95914         0.001307      0.017272     -0.003178
      1.85669      9.82859      6.30244         0.002306     -0.003581     -0.003502
      3.45034      9.00169      8.96269         0.013295     -0.005137     -0.009777
      8.45193      6.56666      8.40321         0.014930     -0.007499     -0.000396
      3.39811      6.53092      8.98750        -0.006365     -0.003605     -0.002584
      8.42059      8.96152      8.38665         0.000280     -0.007758     -0.008786
      7.01385      9.66774      5.95157         0.015806      0.015444     -0.002080
      1.79320     12.22495      6.43772         0.003611     -0.005169      0.001065
      6.60345     17.10052      3.73345        -0.000232     -0.001600      0.001463
      1.39666     17.09982      3.69700         0.000604     -0.000540     -0.000010
      3.80556     14.00053      1.22738        -0.000868     -0.001745     -0.000482
      9.00359     14.01306      1.26046        -0.002579     -0.000929     -0.000058
      9.99944     17.10058      1.93459        -0.002270     -0.000079      0.001251
      4.79052     17.10089      0.56995        -0.000600     -0.001049      0.000159
      0.40641     13.99912      3.02182        -0.000938      0.000572      0.000995
      5.60916     13.98672      4.40831        -0.001545      0.002324     -0.001348
      7.05173     18.30028      1.02471        -0.002136     -0.000074      0.002062
      1.85041     15.89730      1.46711        -0.001274     -0.000461     -0.000482
      3.35586     15.20525      3.93949        -0.001473     -0.002344      0.000616
      8.55721     12.79502      3.48236         0.004298     -0.002889      0.002105
      3.34206     12.80126      3.94835        -0.001057     -0.004523     -0.000091
      8.55382     15.19934      3.49765        -0.002936     -0.002363      0.000939
      7.05014     15.89976      1.02478        -0.001008     -0.001492      0.001414
      1.85084     18.30282      1.46691        -0.001869     -0.000247      0.000034
      6.58399     17.09993      8.68867         0.001224     -0.001334      0.001115
      1.39717     17.10090      8.64248        -0.000294     -0.001158      0.000441
      3.81221     14.01808      6.17702         0.000136     -0.000796      0.000355
      8.99714     14.00477      6.21708         0.000256      0.000842      0.001898
      9.98968     17.09990      6.88719        -0.001295     -0.000892     -0.000693
      4.79623     17.09909      5.49888         0.000005     -0.002345      0.001865
      0.38274     14.04490      8.00833        -0.001247     -0.006124      0.001196
      5.60716     14.00205      9.35974        -0.000069     -0.003536     -0.001042
      7.05044     18.30329      5.96293        -0.000885     -0.000279      0.002774
      1.84137     15.89913      6.41102        -0.000381     -0.001838      0.001178
      3.34675     15.20270      8.89468        -0.000213     -0.003566     -0.001232
      8.54006     12.80734      8.44174        -0.003022     -0.004119     -0.001631
      3.35803     12.79314      8.88811         0.000219     -0.004103      0.000729
      8.51817     15.20991      8.44214         0.000558     -0.003584      0.003985
      7.05207     15.89878      5.96254         0.000295     -0.000279      0.002707
      1.84099     18.30165      6.41006        -0.000689     -0.000722      0.000707
      5.70611      8.31186      7.25907        -0.019419      0.207265      0.024736
 -----------------------------------------------------------------------------------
    total drift:                                0.031515      0.019580     -0.005635


--------------------------------------------------------------------------------------------------------



  FREE ENERGIE OF THE ION-ELECTRON SYSTEM (eV)
  ---------------------------------------------------
  free  energy   TOTEN  =     -1017.06087570 eV

  energy  without entropy=    -1017.06087570  energy(sigma->0) =    -1017.06087570



--------------------------------------------------------------------------------------------------------


    POTLOK:  cpu time      0.5515: real time      0.5540


--------------------------------------------------------------------------------------------------------




--------------------------------------------------------------------------------------------------------


 writing wavefunctions
     LOOP+:  cpu time    192.7660: real time    221.0920
    4ORBIT:  cpu time      0.0000: real time      0.0000



 total charge

# of ion       s       p       d       tot
------------------------------------------
    1        0.254   6.286   5.525  12.065
    2        0.255   6.286   5.527  12.069
    3        0.253   6.282   5.520  12.055
    4        0.254   6.285   5.523  12.062
    5        0.253   6.282   5.523  12.058
    6        0.253   6.283   5.520  12.055
    7        0.254   6.286   5.521  12.061
    8        0.252   6.280   5.521  12.052
    9        0.253   6.284   5.522  12.060
   10        0.255   6.285   5.527  12.067
   11        0.258   6.291   5.526  12.075
   12        0.257   6.289   5.530  12.075
   13        0.253   6.281   5.525  12.059
   14        0.252   6.282   5.519  12.054
   15        0.185   6.171   5.900  12.256
   16        0.260   6.296   5.550  12.105
   17        0.253   6.282   5.521  12.056
   18        0.253   6.282   5.520  12.054
   19        0.252   6.281   5.520  12.054
   20        0.254   6.285   5.523  12.062
   21        0.253   6.283   5.521  12.057
   22        0.253   6.282   5.520  12.055
   23        0.254   6.286   5.521  12.060
   24        0.252   6.281   5.521  12.054
   25        0.908   1.479   0.000   2.387
   26        0.909   1.481   0.000   2.389
   27        0.908   1.476   0.000   2.384
   28        0.908   1.479   0.000   2.387
   29        0.908   1.478   0.000   2.386
   30        0.908   1.479   0.000   2.387
   31        0.908   1.478   0.000   2.386
   32        0.908   1.479   0.000   2.388
   33        0.908   1.477   0.000   2.386
   34        0.909   1.480   0.000   2.389
   35        0.909   1.479   0.000   2.389
   36        0.909   1.484   0.000   2.393
   37        0.909   1.480   0.000   2.389
   38        0.908   1.479   0.000   2.386
   39        0.909   1.485   0.000   2.394
   40        0.910   1.489   0.000   2.399
   41        0.908   1.479   0.000   2.387
   42        0.908   1.478   0.000   2.386
   43        0.908   1.476   0.000   2.384
   44        0.908   1.479   0.000   2.387
   45        0.908   1.480   0.000   2.388
   46        0.908   1.477   0.000   2.385
   47        0.908   1.478   0.000   2.386
   48        0.908   1.479   0.000   2.387
   49        1.565   3.590   0.000   5.155
   50        1.566   3.591   0.000   5.157
   51        1.566   3.589   0.000   5.154
   52        1.566   3.589   0.000   5.155
   53        1.558   3.585   0.000   5.143
   54        1.559   3.586   0.000   5.145
   55        1.558   3.587   0.000   5.145
   56        1.557   3.583   0.000   5.140
   57        1.564   3.543   0.000   5.107
   58        1.565   3.543   0.000   5.108
   59        1.564   3.543   0.000   5.107
   60        1.564   3.543   0.000   5.107
   61        1.564   3.542   0.000   5.106
   62        1.564   3.544   0.000   5.108
   63        1.564   3.546   0.000   5.110
   64        1.564   3.542   0.000   5.106
   65        1.566   3.587   0.000   5.153
   66        1.565   3.588   0.000   5.153
   67        1.566   3.587   0.000   5.153
   68        1.565   3.587   0.000   5.153
   69        1.557   3.584   0.000   5.141
   70        1.558   3.588   0.000   5.146
   71        1.559   3.586   0.000   5.145
   72        1.558   3.586   0.000   5.144
   73        1.565   3.538   0.000   5.103
   74        1.565   3.548   0.000   5.113
   75        1.565   3.542   0.000   5.107
   76        1.564   3.546   0.000   5.111
   77        1.564   3.544   0.000   5.108
   78        1.564   3.545   0.000   5.109
   79        1.564   3.541   0.000   5.105
   80        1.566   3.551   0.000   5.116
   81        1.565   3.591   0.000   5.157
   82        1.566   3.591   0.000   5.157
   83        1.567   3.595   0.000   5.162
   84        1.567   3.589   0.000   5.156
   85        1.558   3.585   0.000   5.143
   86        1.559   3.586   0.000   5.146
   87        1.559   3.594   0.000   5.153
   88        1.557   3.582   0.000   5.140
   89        1.564   3.545   0.000   5.110
   90        1.564   3.541   0.000   5.105
   91        1.564   3.545   0.000   5.109
   92        1.565   3.548   0.000   5.112
   93        1.564   3.546   0.000   5.110
   94        1.565   3.546   0.000   5.110
   95        1.564   3.540   0.000   5.104
   96        1.565   3.542   0.000   5.107
   97        1.565   3.583   0.000   5.148
   98        1.565   3.588   0.000   5.153
   99        1.563   3.609   0.000   5.172
  100        1.565   3.590   0.000   5.155
  101        1.557   3.584   0.000   5.141
  102        1.558   3.585   0.000   5.143
  103        1.560   3.602   0.000   5.162
  104        1.555   3.603   0.000   5.158
  105        1.564   3.542   0.000   5.106
  106        1.567   3.548   0.000   5.114
  107        1.564   3.553   0.000   5.117
  108        1.564   3.540   0.000   5.104
  109        1.564   3.557   0.000   5.121
  110        1.565   3.538   0.000   5.102
  111        1.565   3.551   0.000   5.116
  112        1.565   3.548   0.000   5.113
  113        1.566   3.588   0.000   5.154
  114        1.566   3.588   0.000   5.154
  115        1.566   3.588   0.000   5.154
  116        1.566   3.588   0.000   5.154
  117        1.558   3.585   0.000   5.143
  118        1.558   3.586   0.000   5.145
  119        1.558   3.587   0.000   5.145
  120        1.558   3.583   0.000   5.140
  121        1.564   3.545   0.000   5.109
  122        1.565   3.543   0.000   5.107
  123        1.564   3.542   0.000   5.106
  124        1.564   3.543   0.000   5.107
  125        1.564   3.542   0.000   5.106
  126        1.564   3.542   0.000   5.107
  127        1.564   3.545   0.000   5.109
  128        1.565   3.542   0.000   5.107
  129        1.566   3.588   0.000   5.153
  130        1.566   3.589   0.000   5.154
  131        1.566   3.587   0.000   5.153
  132        1.565   3.587   0.000   5.153
  133        1.558   3.584   0.000   5.142
  134        1.558   3.587   0.000   5.145
  135        1.559   3.585   0.000   5.145
  136        1.558   3.586   0.000   5.143
  137        1.564   3.544   0.000   5.108
  138        1.564   3.544   0.000   5.108
  139        1.564   3.544   0.000   5.108
  140        1.564   3.546   0.000   5.109
  141        1.565   3.541   0.000   5.106
  142        1.564   3.546   0.000   5.110
  143        1.564   3.544   0.000   5.109
  144        1.564   3.544   0.000   5.108
  145        0.050   5.991   0.000   6.041
--------------------------------------------------
tot        177.930 534.571 132.945 845.446



 magnetization (x)

# of ion       s       p       d       tot
------------------------------------------
    1        0.024   0.031   4.289   4.344
    2        0.024   0.032   4.285   4.342
    3        0.024   0.031   4.291   4.345
    4        0.024   0.031   4.291   4.346
    5        0.024   0.031   4.286   4.341
    6        0.023   0.031   4.293   4.347
    7        0.023   0.031   4.295   4.349
    8        0.024   0.031   4.288   4.343
    9        0.024   0.031   4.291   4.345
   10        0.024   0.032   4.285   4.341
   11        0.025   0.031   4.290   4.346
   12        0.024   0.032   4.284   4.340
   13        0.024   0.031   4.283   4.339
   14        0.023   0.031   4.292   4.346
   15        0.027   0.020   3.739   3.786
   16        0.023   0.033   4.264   4.320
   17        0.024   0.031   4.291   4.345
   18        0.024   0.031   4.292   4.347
   19        0.024   0.031   4.291   4.345
   20        0.024   0.031   4.291   4.346
   21        0.024   0.031   4.292   4.347
   22        0.024   0.031   4.292   4.346
   23        0.023   0.031   4.295   4.349
   24        0.024   0.031   4.289   4.343
   25        0.003   0.011   0.000   0.015
   26        0.003   0.012   0.000   0.015
   27        0.003   0.011   0.000   0.015
   28        0.003   0.011   0.000   0.015
   29        0.003   0.011   0.000   0.015
   30        0.004   0.012   0.000   0.016
   31        0.003   0.012   0.000   0.015
   32        0.003   0.011   0.000   0.015
   33        0.003   0.011   0.000   0.014
   34        0.003   0.012   0.000   0.015
   35        0.003   0.010   0.000   0.013
   36        0.004   0.012   0.000   0.015
   37        0.003   0.011   0.000   0.014
   38        0.004   0.012   0.000   0.016
   39        0.004   0.012   0.000   0.016
   40        0.003   0.010   0.000   0.013
   41        0.003   0.011   0.000   0.015
   42        0.003   0.011   0.000   0.015
   43        0.003   0.011   0.000   0.015
   44        0.003   0.011   0.000   0.015
   45        0.003   0.011   0.000   0.015
   46        0.004   0.012   0.000   0.015
   47        0.003   0.012   0.000   0.015
   48        0.003   0.011   0.000   0.015
   49        0.007   0.107   0.000   0.114
   50        0.007   0.108   0.000   0.115
   51        0.007   0.112   0.000   0.120
   52        0.007   0.108   0.000   0.115
   53        0.008   0.106   0.000   0.113
   54        0.008   0.094   0.000   0.102
   55        0.008   0.098   0.000   0.106
   56        0.008   0.106   0.000   0.114
   57        0.010   0.126   0.000   0.136
   58        0.010   0.121   0.000   0.131
   59        0.010   0.122   0.000   0.132
   60        0.010   0.127   0.000   0.137
   61        0.010   0.125   0.000   0.135
   62        0.010   0.126   0.000   0.137
   63        0.010   0.128   0.000   0.139
   64        0.010   0.124   0.000   0.135
   65        0.007   0.107   0.000   0.114
   66        0.008   0.110   0.000   0.117
   67        0.007   0.106   0.000   0.114
   68        0.007   0.111   0.000   0.118
   69        0.008   0.110   0.000   0.117
   70        0.008   0.095   0.000   0.102
   71        0.008   0.095   0.000   0.103
   72        0.008   0.106   0.000   0.114
   73        0.009   0.118   0.000   0.127
   74        0.010   0.126   0.000   0.136
   75        0.010   0.121   0.000   0.131
   76        0.010   0.128   0.000   0.138
   77        0.010   0.122   0.000   0.132
   78        0.010   0.128   0.000   0.139
   79        0.010   0.124   0.000   0.133
   80        0.008   0.112   0.000   0.120
   81        0.007   0.103   0.000   0.111
   82        0.008   0.109   0.000   0.117
   83        0.007   0.105   0.000   0.112
   84        0.007   0.111   0.000   0.118
   85        0.008   0.105   0.000   0.113
   86        0.007   0.095   0.000   0.102
   87        0.007   0.097   0.000   0.104
   88        0.007   0.091   0.000   0.099
   89        0.010   0.125   0.000   0.135
   90        0.010   0.124   0.000   0.135
   91        0.010   0.125   0.000   0.135
   92        0.010   0.129   0.000   0.139
   93        0.010   0.123   0.000   0.134
   94        0.010   0.122   0.000   0.131
   95        0.010   0.123   0.000   0.133
   96        0.010   0.121   0.000   0.131
   97        0.007   0.101   0.000   0.108
   98        0.008   0.111   0.000   0.119
   99        0.003   0.027   0.000   0.030
  100        0.008   0.116   0.000   0.124
  101        0.008   0.113   0.000   0.121
  102        0.007   0.088   0.000   0.096
  103        0.003   0.044   0.000   0.047
  104        0.007   0.089   0.000   0.097
  105        0.010   0.122   0.000   0.132
  106        0.008   0.115   0.000   0.123
  107        0.008   0.088   0.000   0.096
  108        0.010   0.125   0.000   0.135
  109        0.009   0.092   0.000   0.100
  110        0.010   0.120   0.000   0.130
  111        0.008   0.102   0.000   0.110
  112        0.010   0.126   0.000   0.136
  113        0.007   0.109   0.000   0.117
  114        0.007   0.110   0.000   0.118
  115        0.007   0.112   0.000   0.119
  116        0.007   0.108   0.000   0.116
  117        0.008   0.104   0.000   0.112
  118        0.008   0.100   0.000   0.107
  119        0.008   0.099   0.000   0.106
  120        0.008   0.105   0.000   0.113
  121        0.010   0.126   0.000   0.137
  122        0.010   0.124   0.000   0.135
  123        0.010   0.125   0.000   0.135
  124        0.010   0.125   0.000   0.135
  125        0.010   0.121   0.000   0.131
  126        0.010   0.127   0.000   0.137
  127        0.010   0.127   0.000   0.137
  128        0.010   0.124   0.000   0.134
  129        0.007   0.109   0.000   0.117
  130        0.007   0.109   0.000   0.116
  131        0.007   0.106   0.000   0.114
  132        0.007   0.109   0.000   0.116
  133        0.008   0.102   0.000   0.110
  134        0.008   0.100   0.000   0.107
  135        0.008   0.095   0.000   0.103
  136        0.008   0.106   0.000   0.114
  137        0.010   0.126   0.000   0.137
  138        0.010   0.123   0.000   0.134
  139        0.010   0.122   0.000   0.132
  140        0.011   0.129   0.000   0.140
  141        0.010   0.121   0.000   0.131
  142        0.010   0.127   0.000   0.137
  143        0.010   0.126   0.000   0.136
  144        0.010   0.124   0.000   0.134
  145        0.000   0.000   0.000   0.000
--------------------------------------------------
tot          1.485  11.732 102.377 115.594


 total amount of memory used by VASP MPI-rank0   280310. kBytes
=======================================================================

   base      :      30000. kBytes
   nonlr-proj:      27492. kBytes
   fftplans  :       9556. kBytes
   grid      :      26700. kBytes
   one-center:       1150. kBytes
   wavefun   :     185412. kBytes

  
  
 General timing and accounting informations for this job:
 ========================================================
  
                  Total CPU time used (sec):      288.495
                            User time (sec):      278.520
                          System time (sec):        9.975
                         Elapsed time (sec):      326.796
  
                   Maximum memory used (kb):      907492.
                   Average memory used (kb):          N/A
  
                          Minor page faults:        96680
                          Major page faults:           42
                 Voluntary context switches:       122855
