 vasp.6.4.0 14Feb23 (build Mar 11 2024 14:58:30) complex                         
 executed on             epyc9004 date 2024.08.19  18:46:35
 running  288 mpi-ranks, on    3 nodes
 distrk:  each k-point on   96 cores,    3 groups
 distr:  one band on NCORE=   4 cores,   24 groups


--------------------------------------------------------------------------------------------------------


 INCAR:
   ENCUT = 520.000000
   SIGMA = 0.050000
   TIME = 0.050000
   NUPDOWN = 119.000000
   EDIFF = 1.00e-06
   EDIFFG = -2.00e-02
   SYMPREC = 1.00e-07
   ALGO = all
   GGA = PE
   PREC = accurate
   IBRION = 2
   ISIF = 2
   ISMEAR = 0
   ISPIN = 2
   ISYM = 0
   KPAR = 3
   LMAXMIX = 4
   LORBIT = 12
   NELM = 300
   NELMIN = 8
   NSW = 1
   NCORE = 4
   LASPH = .TRUE.
   LCHARG = .TRUE.
   LDAU = .TRUE.
   LWAVE = .TRUE.
   LREAL = auto
   LDAUL = 2 -1 -1 -1
   LDAUU = 5.300 0.000 0.000 0.000
   LDAUJ = 0.000 0.000 0.000 0.000
   MAGMOM = 1*4.3447 1*4.3408 1*4.3448 1*4.3460 1*4.3427 1*4.3462 1*4.3490 1*4.3450 1*4.3473 1*4.3402 1*4.3460 1*4.3430 1*4.3413 1*4.3428 1*3.7850 1*4.3300 1*4.3450 1*4.3460 1*4.3442 1*4.3460 1*4.3470 1*4.3468 1*4.3490 1*4.3450 1*0.0147 3*0.0150 1*0.0147 1*0.0160 2*0.0150 1*0.0133 1*0.0150 1*0.0130 1*0.0150 1*0.0133 2*0.0160 1*0.0130 8*0.0150 1*0.1138 1*0.1162 1*0.1190 1*0.1152 1*0.1120 1*0.1032 1*0.1073 1*0.1117 1*0.1350 1*0.1312 1*0.1315 2*0.1360 1*0.1355 1*0.1365 1*0.1350 1*0.1132 1*0.1175 1*0.1128 1*0.1177 1*0.1175 1*0.1007 1*0.1038 1*0.1120 1*0.1312 1*0.1360 1*0.1310 1*0.1387 1*0.1318 1*0.1372 1*0.1338 1*0.1200 1*0.1052 1*0.1168 1*0.1120 1*0.1170 1*0.1120 1*0.0998 1*0.1070 1*0.1040 1*0.1305 1*0.1350 1*0.1365 1*0.1368 1*0.1345 1*0.1322 1*0.1310 1*0.1318 1*0.0978 1*0.1195 1*0.0300 1*0.1250 1*0.1243 1*0.0873 1*0.0490 1*0.1000 1*0.1292 1*0.1240 1*0.0917 1*0.1398 1*0.0983 1*0.1352 1*0.1158 1*0.1360 1*0.1170 1*0.1180 1*0.1190 1*0.1158 1*0.1110 1*0.1080 1*0.1087 1*0.1103 1*0.1362 1*0.1357 1*0.1360 1*0.1335 1*0.1295 1*0.1360 1*0.1368 1*0.1343 1*0.1170 1*0.1160 1*0.1122 1*0.1163 1*0.1098 1*0.1080 1*0.1032 1*0.1120 1*0.1360 1*0.1340 1*0.1312 1*0.1380 1*0.1312 1*0.1373 1*0.1360 1*0.1340 1*0.0000

 POTCAR:    PAW_PBE Fe_pv 02Aug2007               
 POTCAR:    PAW_PBE P 06Sep2000                   
 POTCAR:    PAW_PBE O 08Apr2002                   
 POTCAR:    PAW_PBE Na_pv 19Sep2006               
 -----------------------------------------------------------------------------
|                                                                             |
|           W    W    AA    RRRRR   N    N  II  N    N   GGGG   !!!           |
|           W    W   A  A   R    R  NN   N  II  NN   N  G    G  !!!           |
|           W    W  A    A  R    R  N N  N  II  N N  N  G       !!!           |
|           W WW W  AAAAAA  RRRRR   N  N N  II  N  N N  G  GGG   !            |
|           WW  WW  A    A  R   R   N   NN  II  N   NN  G    G                |
|           W    W  A    A  R    R  N    N  II  N    N   GGGG   !!!           |
|                                                                             |
|     For optimal performance we recommend to set                             |
|       NCORE = 2 up to number-of-cores-per-socket                            |
|     NCORE specifies how many cores store one orbital (NPAR=cpu/NCORE).      |
|     This setting can greatly improve the performance of VASP for DFT.       |
|     The default, NCORE=1 might be grossly inefficient on modern             |
|     multi-core architectures or massively parallel machines. Do your        |
|     own testing! More info at https://www.vasp.at/wiki/index.php/NCORE      |
|     Unfortunately you need to use the default for GW and RPA                |
|     calculations (for HF NCORE is supported but not extensively tested      |
|     yet).                                                                   |
|                                                                             |
 -----------------------------------------------------------------------------

 POTCAR:    PAW_PBE Fe_pv 02Aug2007               
   VRHFIN =Fe:  3pd7s1                                                                              
   LEXCH  = PE                                                                                      
   EATOM  =  2457.4239 eV,  180.6156 Ry                                                             
                                                                                                    
   TITEL  = PAW_PBE Fe_pv 02Aug2007                                                                 
   LULTRA =        F    use ultrasoft PP ?                                                          
   IUNSCR =        1    unscreen: 0-lin 1-nonlin 2-no                                               
   RPACOR =    1.750    partial core radius                                                         
   POMASS =   55.847; ZVAL   =   14.000    mass and valenz                                          
   RCORE  =    2.200    outmost cutoff radius                                                       
   RWIGS  =    2.200; RWIGS  =    1.164    wigner-seitz radius (au A)                               
   ENMAX  =  293.238; ENMIN  =  219.928 eV                                                          
   ICORE  =        3    local potential                                                             
   LCOR   =        T    correct aug charges                                                         
   LPAW   =        T    paw PP                                                                      
   EAUG   =  578.342                                                                                
   DEXC   =    0.000                                                                                
   RMAX   =    2.249    core radius for proj-oper                                                   
   RAUG   =    1.300    factor for augmentation sphere                                              
   RDEP   =    2.296    radius for radial grids                                                     
   RDEPT  =    1.766    core radius for aug-charge                                                  
                                                                                                    
   Atomic configuration                                                                             
    8 entries                                                                                       
     n  l   j            E        occ.                                                              
     1  0  0.50     -6993.8440   2.0000                                                             
     2  0  0.50      -814.6047   2.0000                                                             
     2  1  1.50      -693.3689   6.0000                                                             
     3  0  0.50       -89.4732   2.0000                                                             
     3  1  1.50       -55.6373   6.0000                                                             
     3  2  2.50        -3.8151   7.0000                                                             
     4  0  0.50        -4.2551   1.0000                                                             
     4  3  2.50        -1.3606   0.0000                                                             
   Description                                                                                      
     l       E           TYP  RCUT    TYP  RCUT                                                     
     1    -55.6372668     23  2.000                                                                 
     1     -5.4423304     23  2.000                                                                 
     2     -3.8151096     23  2.200                                                                 
     2     -5.1756922     23  2.200                                                                 
     0     -4.2550951     23  2.200                                                                 
     0     27.2116520     23  2.200                                                                 
     3     -1.3605826     23  2.200                                                                 
  local pseudopotential read in
  partial core-charges read in
  partial kinetic energy density read in
  atomic valenz-charges read in
  non local Contribution for L=           1  read in
    real space projection operators read in
  non local Contribution for L=           1  read in
    real space projection operators read in
  non local Contribution for L=           2  read in
    real space projection operators read in
  non local Contribution for L=           2  read in
    real space projection operators read in
  non local Contribution for L=           0  read in
    real space projection operators read in
  non local Contribution for L=           0  read in
    real space projection operators read in
    PAW grid and wavefunctions read in

   number of l-projection  operators is LMAX  =           6
   number of lm-projection operators is LMMAX =          18

 POTCAR:    PAW_PBE P 06Sep2000                   
   VRHFIN =P : s2p3                                                                                 
   LEXCH  = PE                                                                                      
   EATOM  =   176.0430 eV,   12.9388 Ry                                                             
                                                                                                    
   TITEL  = PAW_PBE P 06Sep2000                                                                     
   LULTRA =        F    use ultrasoft PP ?                                                          
   IUNSCR =        1    unscreen: 0-lin 1-nonlin 2-no                                               
   RPACOR =    1.500    partial core radius                                                         
   POMASS =   30.974; ZVAL   =    5.000    mass and valenz                                          
   RCORE  =    1.900    outmost cutoff radius                                                       
   RWIGS  =    2.330; RWIGS  =    1.233    wigner-seitz radius (au A)                               
   ENMAX  =  255.040; ENMIN  =  191.280 eV                                                          
   ICORE  =        2    local potential                                                             
   LCOR   =        T    correct aug charges                                                         
   LPAW   =        T    paw PP                                                                      
   EAUG   =  342.924                                                                                
   DEXC   =    0.000                                                                                
   RMAX   =    1.935    core radius for proj-oper                                                   
   RAUG   =    1.300    factor for augmentation sphere                                              
   RDEP   =    1.931    radius for radial grids                                                     
   RDEPT  =    1.794    core radius for aug-charge                                                  
                                                                                                    
   Atomic configuration                                                                             
    6 entries                                                                                       
     n  l   j            E        occ.                                                              
     1  0  0.50     -2084.0982   2.0000                                                             
     2  0  0.50      -173.9859   2.0000                                                             
     2  1  1.50      -124.4865   6.0000                                                             
     3  0  0.50       -13.9692   2.0000                                                             
     3  1  0.50        -5.5067   3.0000                                                             
     3  2  1.50        -5.4423   0.0000                                                             
   Description                                                                                      
     l       E           TYP  RCUT    TYP  RCUT                                                     
     0    -13.9691527     23  1.900                                                                 
     0    -11.7794650     23  1.900                                                                 
     1     -5.5066937     23  1.900                                                                 
     1     -0.2556953     23  1.900                                                                 
     2     -5.4423304     23  1.900                                                                 
  local pseudopotential read in
  partial core-charges read in
  partial kinetic energy density read in
  atomic valenz-charges read in
  non local Contribution for L=           0  read in
    real space projection operators read in
  non local Contribution for L=           0  read in
    real space projection operators read in
  non local Contribution for L=           1  read in
    real space projection operators read in
  non local Contribution for L=           1  read in
    real space projection operators read in
    PAW grid and wavefunctions read in

   number of l-projection  operators is LMAX  =           4
   number of lm-projection operators is LMMAX =           8

 POTCAR:    PAW_PBE O 08Apr2002                   
   VRHFIN =O: s2p4                                                                                  
   LEXCH  = PE                                                                                      
   EATOM  =   432.3788 eV,   31.7789 Ry                                                             
                                                                                                    
   TITEL  = PAW_PBE O 08Apr2002                                                                     
   LULTRA =        F    use ultrasoft PP ?                                                          
   IUNSCR =        1    unscreen: 0-lin 1-nonlin 2-no                                               
   RPACOR =    1.200    partial core radius                                                         
   POMASS =   16.000; ZVAL   =    6.000    mass and valenz                                          
   RCORE  =    1.520    outmost cutoff radius                                                       
   RWIGS  =    1.550; RWIGS  =    0.820    wigner-seitz radius (au A)                               
   ENMAX  =  400.000; ENMIN  =  300.000 eV                                                          
   ICORE  =        2    local potential                                                             
   LCOR   =        T    correct aug charges                                                         
   LPAW   =        T    paw PP                                                                      
   EAUG   =  605.392                                                                                
   DEXC   =    0.000                                                                                
   RMAX   =    1.553    core radius for proj-oper                                                   
   RAUG   =    1.300    factor for augmentation sphere                                              
   RDEP   =    1.550    radius for radial grids                                                     
   RDEPT  =    1.329    core radius for aug-charge                                                  
                                                                                                    
   Atomic configuration                                                                             
    4 entries                                                                                       
     n  l   j            E        occ.                                                              
     1  0  0.50      -514.6923   2.0000                                                             
     2  0  0.50       -23.9615   2.0000                                                             
     2  1  0.50        -9.0305   4.0000                                                             
     3  2  1.50        -9.5241   0.0000                                                             
   Description                                                                                      
     l       E           TYP  RCUT    TYP  RCUT                                                     
     0    -23.9615318     23  1.200                                                                 
     0     -9.5240782     23  1.200                                                                 
     1     -9.0304911     23  1.520                                                                 
     1      8.1634956     23  1.520                                                                 
     2     -9.5240782      7  1.500                                                                 
  local pseudopotential read in
  partial core-charges read in
  partial kinetic energy density read in
  kinetic energy density of atom read in
  atomic valenz-charges read in
  non local Contribution for L=           0  read in
    real space projection operators read in
  non local Contribution for L=           0  read in
    real space projection operators read in
  non local Contribution for L=           1  read in
    real space projection operators read in
  non local Contribution for L=           1  read in
    real space projection operators read in
    PAW grid and wavefunctions read in

   number of l-projection  operators is LMAX  =           4
   number of lm-projection operators is LMMAX =           8

 POTCAR:    PAW_PBE Na_pv 19Sep2006               
   VRHFIN =Na: p6s1                                                                                 
   LEXCH  = PE                                                                                      
   EATOM  =   766.0439 eV,   56.3026 Ry                                                             
                                                                                                    
   TITEL  = PAW_PBE Na_pv 19Sep2006                                                                 
   LULTRA =        F    use ultrasoft PP ?                                                          
   IUNSCR =        1    unscreen: 0-lin 1-nonlin 2-no                                               
   RPACOR =    1.800    partial core radius                                                         
   POMASS =   22.990; ZVAL   =    7.000    mass and valenz                                          
   RCORE  =    2.200    outmost cutoff radius                                                       
   RWIGS  =    2.200; RWIGS  =    1.164    wigner-seitz radius (au A)                               
   ENMAX  =  259.561; ENMIN  =  194.671 eV                                                          
   ICORE  =        2    local potential                                                             
   LCOR   =        T    correct aug charges                                                         
   LPAW   =        T    paw PP                                                                      
   EAUG   =  368.056                                                                                
   DEXC   =    0.000                                                                                
   RMAX   =    2.245    core radius for proj-oper                                                   
   RAUG   =    1.300    factor for augmentation sphere                                              
   RDEP   =    2.259    radius for radial grids                                                     
   RDEPT  =    1.738    core radius for aug-charge                                                  
                                                                                                    
   Atomic configuration                                                                             
    5 entries                                                                                       
     n  l   j            E        occ.                                                              
     1  0  0.50     -1033.6933   2.0000                                                             
     2  0  0.50       -56.7526   2.0000                                                             
     2  1  1.50       -28.6721   6.0000                                                             
     3  0  0.50        -2.7440   1.0000                                                             
     3  2  1.50        -1.3606   0.0000                                                             
   Description                                                                                      
     l       E           TYP  RCUT    TYP  RCUT                                                     
     1    -28.6720912     23  2.000                                                                 
     1      6.8029130     23  2.000                                                                 
     0     -2.7439560     23  2.200                                                                 
     0     34.0145650     23  2.200                                                                 
     2     -1.3605826     23  2.200                                                                 
  local pseudopotential read in
  partial core-charges read in
  partial kinetic energy density read in
  atomic valenz-charges read in
  non local Contribution for L=           1  read in
    real space projection operators read in
  non local Contribution for L=           1  read in
    real space projection operators read in
  non local Contribution for L=           0  read in
    real space projection operators read in
  non local Contribution for L=           0  read in
    real space projection operators read in
    PAW grid and wavefunctions read in

   number of l-projection  operators is LMAX  =           4
   number of lm-projection operators is LMMAX =           8

 Optimization of the real space projectors (new method)

 maximal supplied QI-value         = 17.01
 optimisation between [QCUT,QGAM] = [ 11.57, 23.30] = [ 37.45,152.03] Ry 
 Optimized for a Real-space Cutoff    1.45 Angstroem

   l    n(q)    QCUT    max X(q) W(low)/X(q) W(high)/X(q)  e(spline) 
   1     10    11.565     4.267    0.91E-04    0.15E-03    0.13E-06
   1     10    11.565     5.750    0.14E-03    0.22E-03    0.20E-06
   2      9    11.565    53.656    0.13E-03    0.57E-04    0.16E-06
   2      9    11.565    49.521    0.13E-03    0.59E-04    0.16E-06
   0     10    11.565    31.246    0.61E-04    0.74E-05    0.89E-07
   0     10    11.565    12.201    0.44E-04    0.68E-05    0.74E-07
 Optimization of the real space projectors (new method)

 maximal supplied QI-value         = 19.84
 optimisation between [QCUT,QGAM] = [ 11.51, 23.22] = [ 37.09,150.92] Ry 
 Optimized for a Real-space Cutoff    1.21 Angstroem

   l    n(q)    QCUT    max X(q) W(low)/X(q) W(high)/X(q)  e(spline) 
   0      8    11.508   160.924    0.96E-04    0.17E-03    0.52E-07
   0      8    11.508   130.086    0.95E-04    0.17E-03    0.51E-07
   1      8    11.508    74.434    0.16E-03    0.74E-04    0.91E-07
   1      8    11.508    49.120    0.16E-03    0.71E-04    0.89E-07
 Optimization of the real space projectors (new method)

 maximal supplied QI-value         = 24.76
 optimisation between [QCUT,QGAM] = [ 11.64, 23.27] = [ 37.91,151.63] Ry 
 Optimized for a Real-space Cutoff    1.14 Angstroem

   l    n(q)    QCUT    max X(q) W(low)/X(q) W(high)/X(q)  e(spline) 
   0      8    11.635    20.381    0.10E-03    0.33E-03    0.24E-06
   0      8    11.635    15.268    0.11E-03    0.35E-03    0.26E-06
   1      7    11.635     5.964    0.24E-03    0.31E-03    0.30E-06
   1      7    11.635     5.382    0.22E-03    0.25E-03    0.26E-06
 Optimization of the real space projectors (new method)

 maximal supplied QI-value         = 17.01
 optimisation between [QCUT,QGAM] = [ 11.57, 23.30] = [ 37.45,152.03] Ry 
 Optimized for a Real-space Cutoff    1.45 Angstroem

   l    n(q)    QCUT    max X(q) W(low)/X(q) W(high)/X(q)  e(spline) 
   1     10    11.565     4.940    0.87E-04    0.13E-03    0.13E-06
   1     10    11.565     6.253    0.13E-03    0.19E-03    0.20E-06
   0     10    11.565    37.438    0.53E-04    0.73E-05    0.79E-07
   0     10    11.565     9.606    0.27E-04    0.60E-05    0.56E-07
  PAW_PBE Fe_pv 02Aug2007               :
 energy of atom  1       EATOM=-2457.4239
 kinetic energy error for atom=    0.0062 (will be added to EATOM!!)
  PAW_PBE P 06Sep2000                   :
 energy of atom  2       EATOM= -176.0430
 kinetic energy error for atom=    0.0011 (will be added to EATOM!!)
  PAW_PBE O 08Apr2002                   :
 energy of atom  3       EATOM= -432.3788
 kinetic energy error for atom=    0.0208 (will be added to EATOM!!)
  PAW_PBE Na_pv 19Sep2006               :
 energy of atom  4       EATOM= -766.0439
 kinetic energy error for atom=    0.0019 (will be added to EATOM!!)


 POSCAR: Fe P  O  Na
  positions in cartesian coordinates
  No initial velocities read in
 exchange correlation table for  LEXCH =        8
   RHO(1)=    0.500       N(1)  =     2000
   RHO(2)=  100.500       N(2)  =     4000



--------------------------------------------------------------------------------------------------------


 ion  position               nearest neighbor table
   1  0.782  0.247  0.255-  49 1.94  53 1.96  62 2.14  63 2.17  92 2.22  57 2.22  25 2.87
   2  0.279  0.250  0.492-  50 1.93  70 1.98  80 2.07  93 2.17  59 2.18  74 2.34  30 2.87
   3  0.220  0.083  0.244-  51 1.93  55 1.97  58 2.17 128 2.18  59 2.19  61 2.23
   4  0.718  0.082  0.007-  52 1.94  72 1.96 121 2.16  63 2.17  76 2.20  78 2.21  32 2.87
   5  0.780  0.247  0.757-  65 1.94  69 1.96  78 2.16  79 2.18 108 2.19  73 2.28
   6  0.283  0.251  0.993-  66 1.94  54 1.99 109 2.08  75 2.18  64 2.22  58 2.23
   7  0.218  0.082  0.744-  67 1.95  71 1.99  74 2.07 144 2.16  77 2.22  75 2.23
   8  0.719  0.082  0.507-  68 1.93  56 1.97 137 2.16  79 2.19  60 2.21  62 2.23
   9  0.782  0.584  0.254-  81 1.94  85 1.96 124 2.16  94 2.18  95 2.20  89 2.21  33 2.86
  10  0.280  0.583  0.491-  82 1.93 102 2.01 106 2.06 125 2.16  91 2.16 112 2.36  38 2.87
  11  0.219  0.416  0.246-  83 1.92  87 1.96  64 2.18  93 2.19  91 2.20  90 2.20  35 2.86
  12  0.721  0.414  0.008-  84 1.92 104 1.98  57 2.14 108 2.17  95 2.22 110 2.23  40 2.86
  13  0.783  0.587  0.757- 101 1.95  97 1.98 140 2.11 110 2.19 105 2.20 111 2.28
  14  0.283  0.582  0.994-  98 1.94  86 1.98 107 2.13 141 2.19  90 2.20  96 2.22  34 2.87
  15  0.209  0.414  0.737- 103 1.99  99 2.06  80 2.25 106 2.36
  16  0.722  0.413  0.495- 100 1.92  88 1.97  92 2.12  73 2.15  94 2.20 111 2.30  36 2.81
  17  0.781  0.917  0.257- 113 1.93 117 1.97  60 2.16 126 2.18 121 2.21 127 2.22
  18  0.280  0.917  0.494- 114 1.93 134 1.97  61 2.15 123 2.17 144 2.22 138 2.22
  19  0.220  0.750  0.244- 115 1.93 119 1.97 122 2.17  96 2.18 123 2.21 125 2.23
  20  0.718  0.752  0.007- 116 1.94 136 1.96 127 2.14  89 2.17 142 2.19 140 2.24
  21  0.779  0.917  0.757- 129 1.94 133 1.97  76 2.14 142 2.16 137 2.21 143 2.22
  22  0.280  0.917  0.995- 130 1.94 118 1.97  77 2.16 139 2.17 128 2.21 122 2.22  42 2.88
  23  0.218  0.751  0.745- 131 1.95 135 1.99 112 2.07 138 2.15 139 2.21 141 2.24
  24  0.719  0.752  0.506- 132 1.94 120 1.97 143 2.15 105 2.18 126 2.19 124 2.24
  25  0.608  0.249  0.031-  54 1.53  65 1.54  63 1.59  57 1.59   1 2.87
  26  0.107  0.249  0.219-  50 1.54  53 1.54  58 1.58  64 1.58
  27  0.393  0.082  0.472-  67 1.53  56 1.54  61 1.58  59 1.59
  28  0.893  0.082  0.280-  52 1.54  55 1.54  60 1.59  62 1.59
  29  0.607  0.250  0.528-  70 1.54  49 1.54  73 1.58  79 1.59
  30  0.106  0.245  0.719-  66 1.54  69 1.55  80 1.58  74 1.58   2 2.87
  31  0.393  0.083  0.971-  51 1.54  72 1.54  75 1.58  77 1.58
  32  0.892  0.082  0.781-  71 1.53  68 1.54  78 1.59  76 1.59   4 2.87
  33  0.608  0.584  0.030-  86 1.54  97 1.55  89 1.58  95 1.58   9 2.86
  34  0.107  0.584  0.218-  82 1.54  85 1.54  96 1.58  90 1.58  14 2.87
  35  0.394  0.416  0.468-  99 1.53  88 1.55  93 1.58  91 1.59  11 2.86
  36  0.895  0.417  0.277-  87 1.54  84 1.54  94 1.58  92 1.59  16 2.81
  37  0.609  0.585  0.527-  81 1.53 102 1.55 105 1.58 111 1.59
  38  0.109  0.588  0.718-  98 1.54 101 1.55 106 1.57 112 1.58  10 2.87
  39  0.392  0.415  0.978-  83 1.53 109 1.56 104 1.57 107 1.57
  40  0.886  0.417  0.777- 103 1.51 100 1.54 110 1.59 108 1.59  12 2.86
  41  0.606  0.917  0.031- 129 1.54 118 1.54 121 1.58 127 1.59
  42  0.107  0.917  0.221- 114 1.54 117 1.54 128 1.58 122 1.58  22 2.88
  43  0.393  0.750  0.472- 131 1.53 120 1.54 123 1.59 125 1.59
  44  0.893  0.750  0.280- 116 1.54 119 1.54 124 1.58 126 1.59
  45  0.607  0.917  0.530- 113 1.54 134 1.54 137 1.58 143 1.58
  46  0.106  0.917  0.721- 130 1.54 133 1.54 144 1.58 138 1.58
  47  0.393  0.750  0.971- 115 1.54 136 1.54 141 1.58 139 1.58
  48  0.892  0.751  0.781- 135 1.53 132 1.54 142 1.59 140 1.59
  49  0.636  0.249  0.376-  29 1.54   1 1.94
  50  0.134  0.249  0.372-  26 1.54   2 1.93
  51  0.365  0.083  0.124-  31 1.54   3 1.93
  52  0.865  0.082  0.127-  28 1.54   4 1.94
  53  0.961  0.249  0.193-  26 1.54   1 1.96
  54  0.463  0.248  0.059-  25 1.53   6 1.99
  55  0.039  0.083  0.305-  28 1.54   3 1.97
  56  0.539  0.083  0.445-  27 1.54   8 1.97
  57  0.680  0.313  0.102-  25 1.59  12 2.14   1 2.22
  58  0.179  0.185  0.146-  26 1.58   3 2.17   6 2.23
  59  0.321  0.146  0.399-  27 1.59   2 2.18   3 2.19
  60  0.822  0.018  0.353-  28 1.59  17 2.16   8 2.21
  61  0.323  0.018  0.398-  27 1.58  18 2.15   3 2.23
  62  0.823  0.147  0.352-  28 1.59   1 2.14   8 2.23
  63  0.680  0.184  0.103-  25 1.59   4 2.17   1 2.17
  64  0.178  0.314  0.148-  26 1.58  11 2.18   6 2.22
  65  0.634  0.248  0.878-  25 1.54   5 1.94
  66  0.137  0.249  0.870-  30 1.54   6 1.94
  67  0.366  0.082  0.624-  27 1.53   7 1.95
  68  0.864  0.082  0.628-  32 1.54   8 1.93
  69  0.960  0.247  0.697-  30 1.55   5 1.96
  70  0.461  0.248  0.553-  29 1.54   2 1.98
  71  0.037  0.080  0.809-  32 1.53   7 1.99
  72  0.539  0.083  0.946-  31 1.54   4 1.96
  73  0.674  0.315  0.600-  29 1.58  16 2.15   5 2.28
  74  0.172  0.178  0.650-  30 1.58   7 2.07   2 2.34
  75  0.323  0.147  0.898-  31 1.58   6 2.18   7 2.23
  76  0.819  0.018  0.853-  32 1.59  21 2.14   4 2.20
  77  0.322  0.018  0.899-  31 1.58  22 2.16   7 2.22
  78  0.821  0.146  0.854-  32 1.59   5 2.16   4 2.21
  79  0.679  0.186  0.602-  29 1.59   5 2.18   8 2.19
  80  0.178  0.306  0.638-  30 1.58   2 2.07  15 2.25
  81  0.636  0.584  0.375-  37 1.53   9 1.94
  82  0.134  0.584  0.371-  34 1.54  10 1.93
  83  0.368  0.417  0.131-  39 1.53  11 1.92
  84  0.869  0.416  0.124-  36 1.54  12 1.92
  85  0.961  0.584  0.191-  34 1.54   9 1.96
  86  0.463  0.586  0.059-  33 1.54  14 1.98
  87  0.040  0.417  0.306-  36 1.54  11 1.96
  88  0.540  0.417  0.438-  35 1.55  16 1.97
  89  0.682  0.648  0.099-  33 1.58  20 2.17   9 2.21
  90  0.179  0.519  0.146-  34 1.58  14 2.20  11 2.20
  91  0.322  0.481  0.397-  35 1.59  10 2.16  11 2.20
  92  0.824  0.352  0.349-  36 1.59  16 2.12   1 2.22
  93  0.322  0.352  0.397-  35 1.58   2 2.17  11 2.19
  94  0.823  0.481  0.349-  36 1.58   9 2.18  16 2.20
  95  0.679  0.519  0.102-  33 1.58   9 2.20  12 2.22
  96  0.179  0.648  0.146-  34 1.58  19 2.18  14 2.22
  97  0.631  0.582  0.876-  33 1.55  13 1.98
  98  0.139  0.583  0.870-  38 1.54  14 1.94
  99  0.373  0.417  0.622-  35 1.53  15 2.06 145 2.27
 100  0.859  0.416  0.624-  40 1.54  16 1.92
 101  0.961  0.585  0.697-  38 1.55  13 1.95
 102  0.463  0.583  0.557-  37 1.55  10 2.01
 103  0.029  0.418  0.805-  40 1.51  15 1.99
 104  0.540  0.415  0.949-  39 1.57  12 1.98 145 2.30
 105  0.680  0.648  0.601-  37 1.58  24 2.18  13 2.20
 106  0.180  0.527  0.637-  38 1.57  10 2.06  15 2.36
 107  0.334  0.483  0.905-  39 1.57  14 2.13
 108  0.814  0.352  0.850-  40 1.59  12 2.17   5 2.19
 109  0.325  0.350  0.909-  39 1.56   6 2.08
 110  0.811  0.481  0.848-  40 1.59  13 2.19  12 2.23
 111  0.677  0.519  0.601-  37 1.59  13 2.28 145 2.28  16 2.30
 112  0.173  0.655  0.651-  38 1.58  23 2.07  10 2.36
 113  0.635  0.917  0.377-  45 1.54  17 1.93
 114  0.134  0.916  0.374-  42 1.54  18 1.93
 115  0.366  0.750  0.124-  47 1.54  19 1.93
 116  0.865  0.751  0.127-  44 1.54  20 1.94
 117  0.961  0.917  0.196-  42 1.54  17 1.97
 118  0.460  0.917  0.058-  41 1.54  22 1.97
 119  0.039  0.750  0.305-  44 1.54  19 1.97
 120  0.539  0.750  0.445-  43 1.54  24 1.97
 121  0.678  0.981  0.104-  41 1.58   4 2.16  17 2.21
 122  0.178  0.852  0.148-  42 1.58  19 2.17  22 2.22
 123  0.322  0.814  0.398-  43 1.59  18 2.17  19 2.21
 124  0.823  0.686  0.351-  44 1.58   9 2.16  24 2.24
 125  0.322  0.686  0.400-  43 1.59  10 2.16  19 2.23
 126  0.822  0.814  0.353-  44 1.59  17 2.18  24 2.19
 127  0.677  0.852  0.104-  41 1.59  20 2.14  17 2.22
 128  0.178  0.981  0.148-  42 1.58   3 2.18  22 2.21
 129  0.633  0.917  0.878-  41 1.54  21 1.94
 130  0.134  0.917  0.874-  46 1.54  22 1.94
 131  0.367  0.751  0.624-  43 1.53  23 1.95
 132  0.865  0.751  0.628-  48 1.54  24 1.94
 133  0.960  0.916  0.696-  46 1.54  21 1.97
 134  0.461  0.916  0.556-  45 1.54  18 1.97
 135  0.037  0.753  0.810-  48 1.53  23 1.99
 136  0.539  0.751  0.946-  47 1.54  20 1.96
 137  0.677  0.981  0.603-  45 1.58   8 2.16  21 2.21
 138  0.177  0.852  0.648-  46 1.58  23 2.15  18 2.22
 139  0.321  0.815  0.899-  47 1.58  22 2.17  23 2.21
 140  0.821  0.686  0.852-  48 1.59  13 2.11  20 2.24
 141  0.323  0.686  0.899-  47 1.58  14 2.19  23 2.24
 142  0.818  0.815  0.853-  48 1.59  21 2.16  20 2.19
 143  0.678  0.852  0.603-  45 1.58  24 2.15  21 2.22
 144  0.177  0.981  0.648-  46 1.58   7 2.16  18 2.22
 145  0.526  0.474  0.746-  99 2.27 111 2.28 104 2.30


IMPORTANT INFORMATION: All symmetrisations will be switched off!
NOSYMM: (Re-)initialisation of all symmetry stuff for point group C_1.


----------------------------------------------------------------------------------------

                                     Primitive cell                                     

  volume of cell :    1920.7920

  direct lattice vectors                    reciprocal lattice vectors
    10.406300000  0.000000000  0.000000000     0.096095634  0.000000000  0.000000000
     0.000000000 18.656100000  0.000000000     0.000000000  0.053601771  0.000000000
     0.000000000  0.000000000  9.893800000     0.000000000  0.000000000  0.101073400

  length of vectors
    10.406300000 18.656100000  9.893800000     0.096095634  0.053601771  0.101073400

  position of ions in fractional coordinates (direct lattice)
     0.782174742  0.246898674  0.254740166
     0.279478170  0.249652315  0.492282514
     0.219657411  0.083397876  0.244427234
     0.718444058  0.082013651  0.007090388
     0.779976543  0.247492377  0.756708797
     0.282566900  0.250514291  0.993075078
     0.217869251  0.081933592  0.744388935
     0.718818177  0.082346098  0.506833249
     0.782493885  0.584363976  0.253840088
     0.279627338  0.582845809  0.490641025
     0.219358534  0.416070810  0.245944134
     0.721291229  0.413846278  0.008431772
     0.783327222  0.586934264  0.756915170
     0.282750194  0.582438250  0.994430808
     0.208965101  0.413511253  0.736921509
     0.721603509  0.412624421  0.494928052
     0.781073698  0.916801524  0.256850434
     0.280456068  0.916727376  0.494134834
     0.219612610  0.750392285  0.244448713
     0.718059727  0.751804389  0.007376296
     0.779382397  0.916849200  0.757488281
     0.280462152  0.916826428  0.994576927
     0.217996319  0.751459908  0.744543986
     0.719395126  0.751603458  0.506090998
     0.607636143  0.248524928  0.030719458
     0.107334619  0.249160436  0.218882684
     0.392732200  0.082353513  0.471632139
     0.893421022  0.082416392  0.279861274
     0.606517508  0.249557921  0.528182917
     0.106495949  0.245009199  0.718536729
     0.392615985  0.082873852  0.971133509
     0.891799958  0.081796589  0.781154779
     0.607866779  0.583797887  0.030455330
     0.107494038  0.583933249  0.217819738
     0.394491048  0.416407434  0.468437969
     0.895075704  0.416884486  0.277358883
     0.608544203  0.584579001  0.527353125
     0.108597907  0.587674467  0.718239109
     0.392256889  0.415241952  0.978307664
     0.885672446  0.416653308  0.776970809
     0.605949284  0.916623411  0.030952810
     0.107060273  0.916560531  0.220968468
     0.392896179  0.750290154  0.471872828
     0.893270426  0.750276113  0.279575585
     0.606541999  0.916583983  0.529870532
     0.106064063  0.916552928  0.721142016
     0.392515579  0.750216564  0.971288064
     0.891951347  0.751213356  0.780902206
     0.636335436  0.249355505  0.375982854
     0.133710315  0.248652276  0.371561465
     0.365455416  0.082747482  0.123911589
     0.865387579  0.082030629  0.127449777
     0.961182565  0.249110868  0.192814570
     0.462663769  0.247561924  0.059085471
     0.039188543  0.082617593  0.305463771
     0.538962872  0.083239096  0.445470741
     0.679664905  0.313188754  0.102465170
     0.178502227  0.184910607  0.146388029
     0.320784120  0.146475710  0.398559294
     0.822126055  0.018270167  0.353457482
     0.322687641  0.017710002  0.398300271
     0.822547913  0.147098872  0.352314331
     0.680458296  0.184446126  0.103124738
     0.177746911  0.314223484  0.147942223
     0.633693402  0.248236313  0.877793393
     0.136955515  0.249298186  0.870343493
     0.366161538  0.081706478  0.624168834
     0.864419782  0.082487355  0.628377259
     0.959525846  0.247495763  0.696858312
     0.460626225  0.248469841  0.552507742
     0.036856608  0.080287970  0.809046407
     0.538855460  0.082588915  0.946120029
     0.674453602  0.315171794  0.600118971
     0.171981924  0.177770720  0.650171323
     0.322561306  0.147234791  0.898117431
     0.818846079  0.017604286  0.852992067
     0.321846790  0.018126246  0.898957472
     0.820692640  0.146370427  0.853729205
     0.678902404  0.185926144  0.602477890
     0.177972727  0.306092474  0.637957435
     0.635699856  0.584391220  0.375298046
     0.133558382  0.584172461  0.370569303
     0.368490726  0.416608504  0.131174527
     0.869380826  0.416319080  0.124455285
     0.961433991  0.583728660  0.191497682
     0.462865130  0.585601107  0.059177943
     0.040113242  0.416968483  0.305898291
     0.540459942  0.417033950  0.438443049
     0.681553511  0.648299859  0.099284293
     0.178568940  0.519148587  0.146349164
     0.322082705  0.480942198  0.396706789
     0.823513257  0.352096383  0.349224556
     0.321826023  0.352041760  0.397445474
     0.822743638  0.481086185  0.348793172
     0.679476764  0.519441908  0.102474151
     0.178609742  0.648386144  0.145989531
     0.630783733  0.581739251  0.875645427
     0.139013698  0.582652722  0.870037262
     0.373162856  0.417060765  0.621632350
     0.858759229  0.415963718  0.623872982
     0.961339812  0.585300662  0.696941372
     0.462656008  0.582658745  0.556503066
     0.028699411  0.417636423  0.805026546
     0.540090975  0.414748402  0.948969577
     0.679777974  0.648454256  0.601462910
     0.179870234  0.527015618  0.636840021
     0.333579202  0.482555707  0.904890154
     0.813554868  0.352106936  0.849874871
     0.325255884  0.349939094  0.908701148
     0.810587860  0.480787752  0.847537614
     0.676689265  0.519393619  0.601182921
     0.172815338  0.655465236  0.651001280
     0.634656852  0.916556976  0.377400930
     0.134213266  0.916473671  0.373651668
     0.365697055  0.750412936  0.124150214
     0.865336040  0.751137873  0.127092146
     0.960917690  0.916561058  0.195513875
     0.460363807  0.916629572  0.057618793
     0.039118610  0.750267415  0.305200536
     0.539044301  0.749880833  0.445286735
     0.677704960  0.980895412  0.103594993
     0.177805204  0.852049925  0.148315316
     0.321911640  0.814492662  0.397995634
     0.822509854  0.685517926  0.351384002
     0.321888571  0.685534395  0.399731537
     0.821951160  0.814466424  0.353377148
     0.677434802  0.852212357  0.103617868
     0.177915304  0.980967292  0.148221436
     0.632723599  0.916522325  0.878238808
     0.134309879  0.916635807  0.873545461
     0.366610023  0.751446342  0.624466577
     0.865137929  0.750924231  0.628131963
     0.959909736  0.916433077  0.696272709
     0.460785695  0.916379252  0.555553275
     0.036782712  0.752740659  0.809703204
     0.538728445  0.750584043  0.945876744
     0.677334919  0.981036815  0.602847264
     0.176919395  0.852149870  0.648051308
     0.321469262  0.814839564  0.899084114
     0.820827522  0.686008151  0.852371615
     0.322726317  0.685659525  0.898566093
     0.818236740  0.814856065  0.853403766
     0.677659491  0.852181492  0.602708673
     0.176820307  0.980901319  0.647792940
     0.526140342  0.473870130  0.745574865

  ion indices of the primitive-cell ions
   primitive index   ion index
                 1           1
                 2           2
                 3           3
                 4           4
                 5           5
                 6           6
                 7           7
                 8           8
                 9           9
                10          10
                11          11
                12          12
                13          13
                14          14
                15          15
                16          16
                17          17
                18          18
                19          19
                20          20
                21          21
                22          22
                23          23
                24          24
                25          25
                26          26
                27          27
                28          28
                29          29
                30          30
                31          31
                32          32
                33          33
                34          34
                35          35
                36          36
                37          37
                38          38
                39          39
                40          40
                41          41
                42          42
                43          43
                44          44
                45          45
                46          46
                47          47
                48          48
                49          49
                50          50
                51          51
                52          52
                53          53
                54          54
                55          55
                56          56
                57          57
                58          58
                59          59
                60          60
                61          61
                62          62
                63          63
                64          64
                65          65
                66          66
                67          67
                68          68
                69          69
                70          70
                71          71
                72          72
                73          73
                74          74
                75          75
                76          76
                77          77
                78          78
                79          79
                80          80
                81          81
                82          82
                83          83
                84          84
                85          85
                86          86
                87          87
                88          88
                89          89
                90          90
                91          91
                92          92
                93          93
                94          94
                95          95
                96          96
                97          97
                98          98
                99          99
               100         100
               101         101
               102         102
               103         103
               104         104
               105         105
               106         106
               107         107
               108         108
               109         109
               110         110
               111         111
               112         112
               113         113
               114         114
               115         115
               116         116
               117         117
               118         118
               119         119
               120         120
               121         121
               122         122
               123         123
               124         124
               125         125
               126         126
               127         127
               128         128
               129         129
               130         130
               131         131
               132         132
               133         133
               134         134
               135         135
               136         136
               137         137
               138         138
               139         139
               140         140
               141         141
               142         142
               143         143
               144         144
               145         145

----------------------------------------------------------------------------------------



 KPOINTS: KPOINTS created by Atomic Simulation Env

Automatic generation of k-mesh.
 Grid dimensions read from file:
 generate k-points for:    3    1    3

 Generating k-lattice:

  Cartesian coordinates                     Fractional coordinates (reciprocal lattice)
     0.032031878  0.000000000  0.000000000     0.333333333  0.000000000  0.000000000
     0.000000000  0.053601771  0.000000000     0.000000000  1.000000000  0.000000000
     0.000000000  0.000000000  0.033691133     0.000000000  0.000000000  0.333333333

  Length of vectors
     0.032031878  0.053601771  0.033691133

  Shift w.r.t. Gamma in fractional coordinates (k-lattice)
     0.000000000  0.000000000  0.000000000

 
 Subroutine IBZKPT returns following result:
 ===========================================
 
 Found      5 irreducible k-points:
 
 Following reciprocal coordinates:
            Coordinates               Weight
  0.000000  0.000000  0.000000      1.000000
  0.333333  0.000000  0.000000      2.000000
  0.000000  0.000000  0.333333      2.000000
  0.333333  0.000000  0.333333      2.000000
 -0.333333  0.000000  0.333333      2.000000
 
 Following cartesian coordinates:
            Coordinates               Weight
  0.000000  0.000000  0.000000      1.000000
  0.032032  0.000000  0.000000      2.000000
  0.000000  0.000000  0.033691      2.000000
  0.032032  0.000000  0.033691      2.000000
 -0.032032  0.000000  0.033691      2.000000
 


--------------------------------------------------------------------------------------------------------




 Dimension of arrays:
   k-points           NKPTS =      5   k-points in BZ     NKDIM =      5   number of bands    NBANDS=    696
   number of dos      NEDOS =    301   number of ions     NIONS =    145
   non local maximal  LDIM  =      6   non local SUM 2l+1 LMDIM =     18
   total plane-waves  NPLWV = 896000
   max r-space proj   IRMAX =   5954   max aug-charges    IRDMAX=  14393
   dimension x,y,z NGX =    80 NGY =  140 NGZ =   80
   dimension x,y,z NGXF=   160 NGYF=  280 NGZF=  160
   support grid    NGXF=   160 NGYF=  280 NGZF=  160
   ions per type =              24  24  96   1
   NGX,Y,Z   is equivalent  to a cutoff of  12.78, 12.48, 13.44 a.u.
   NGXF,Y,Z  is equivalent  to a cutoff of  25.56, 24.95, 26.88 a.u.

 SYSTEM =  unknown system                          
 POSCAR =  Fe P  O  Na                             

 Startparameter for this run:
   NWRITE =      2    write-flag & timer
   PREC   = accura    normal or accurate (medium, high low for compatibility)
   ISTART =      1    job   : 0-new  1-cont  2-samecut
   ICHARG =      0    charge: 1-file 2-atom 10-const
   ISPIN  =      2    spin polarized calculation?
   LNONCOLLINEAR =      F non collinear calculations
   LSORBIT =      F    spin-orbit coupling
   INIWAV =      1    electr: 0-lowe 1-rand  2-diag
   LASPH  =      T    aspherical Exc in radial PAW
 Electronic Relaxation 1
   ENCUT  =  520.0 eV  38.22 Ry    6.18 a.u.  19.35 34.69 18.40*2*pi/ulx,y,z
   ENINI  =  520.0     initial cutoff
   ENAUG  =  605.4 eV  augmentation charge cutoff
   NELM   =    300;   NELMIN=  8; NELMDL=  0     # of ELM steps 
   EDIFF  = 0.1E-05   stopping-criterion for ELM
   LREAL  =      T    real-space projection
   NLSPLINE    = F    spline interpolate recip. space projectors
   LCOMPAT=      F    compatible to vasp.4.4
   GGA_COMPAT  = T    GGA compatible to vasp.4.4-vasp.4.6
   LMAXPAW     = -100 max onsite density
   LMAXMIX     =    4 max onsite mixed and CHGCAR
   VOSKOWN=      0    Vosko Wilk Nusair interpolation
   ROPT   =   -0.00025  -0.00025  -0.00025  -0.00025
 Ionic relaxation
   EDIFFG = -.2E-01   stopping-criterion for IOM
   NSW    =      1    number of steps for IOM
   NBLOCK =      1;   KBLOCK =      1    inner block; outer block 
   IBRION =      2    ionic relax: 0-MD 1-quasi-New 2-CG
   NFREE  =      1    steps in history (QN), initial steepest desc. (CG)
   ISIF   =      2    stress and relaxation
   IWAVPR =     11    prediction:  0-non 1-charg 2-wave 3-comb
   ISYM   =      0    0-nonsym 1-usesym 2-fastsym
   LCORR  =      T    Harris-Foulkes like correction to forces

   POTIM  = 0.5000    time-step for ionic-motion
   TEIN   =    0.0    initial temperature
   TEBEG  =    0.0;   TEEND  =   0.0 temperature during run
   SMASS  =  -3.00    Nose mass-parameter (am)
   estimated Nose-frequenzy (Omega)   =  0.10E-29 period in steps = 0.13E+47 mass=  -0.247E-26a.u.
   SCALEE = 1.0000    scale energy and forces
   NPACO  =    256;   APACO  = 10.0  distance and # of slots for P.C.
   PSTRESS=    0.0 pullay stress

  Mass of Ions in am
   POMASS =  55.85 30.97 16.00 22.99
  Ionic Valenz
   ZVAL   =  14.00  5.00  6.00  7.00
  Atomic Wigner-Seitz radii
   RWIGS  =  -1.00 -1.00 -1.00 -1.00
  virtual crystal weights 
   VCA    =   1.00  1.00  1.00  1.00
   NELECT =    1039.0000    total number of electrons
   NUPDOWN=     119.0000    fix difference up-down

 DOS related values:
   EMIN   =  10.00;   EMAX   =-10.00  energy-range for DOS
   EFERMI =   0.00;   METHOD = LEGACY      
   ISMEAR =     0;   SIGMA  =   0.05  broadening in eV -4-tet -1-fermi 0-gaus

 Electronic relaxation 2 (details)
   IALGO  =     58    algorithm
   LDIAG  =      T    sub-space diagonalisation (order eigenvalues)
   LSUBROT=      F    optimize rotation matrix (better conditioning)
   TURBO    =      0    0=normal 1=particle mesh
   IRESTART =      0    0=no restart 2=restart with 2 vectors
   NREBOOT  =      0    no. of reboots
   NMIN     =      0    reboot dimension
   EREF     =   0.00    reference energy to select bands
   IMIX   =      4    mixing-type and parameters
     AMIX     =   0.40;   BMIX     =  1.00
     AMIX_MAG =   1.60;   BMIX_MAG =  1.00
     AMIN     =   0.10
     WC   =   100.;   INIMIX=   1;  MIXPRE=   1;  MAXMIX= -45

 Intra band minimization:
   WEIMIN = 0.0010     energy-eigenvalue tresh-hold
   EBREAK =  0.36E-09  absolut break condition
   DEPER  =   0.30     relativ break condition  

   TIME   =   0.05     timestep for ELM

  volume/ion in A,a.u.               =      13.25        89.39
  Fermi-wavevector in a.u.,A,eV,Ry     =   1.333890  2.520686 24.208324  1.779262
  Thomas-Fermi vector in A             =   2.462713

 Write flags
   LWAVE        =      T    write WAVECAR
   LDOWNSAMPLE  =      F    k-point downsampling of WAVECAR
   LCHARG       =      T    write CHGCAR
   LVTOT        =      F    write LOCPOT, total local potential
   LVHAR        =      F    write LOCPOT, Hartree potential only
   LELF         =      F    write electronic localiz. function (ELF)
   LORBIT       =     12    0 simple, 1 ext, 2 COOP (PROOUT), +10 PAW based schemes


 Dipole corrections
   LMONO  =      F    monopole corrections only (constant potential shift)
   LDIPOL =      F    correct potential (dipole corrections)
   IDIPOL =      0    1-x, 2-y, 3-z, 4-all directions 
   EPSILON=  1.0000000 bulk dielectric constant

 LDA+U is selected, type is set to LDAUTYPE =  2
   angular momentum for each species LDAUL =     2   -1   -1   -1
   U (eV)           for each species LDAUU =   5.3  0.0  0.0  0.0
   J (eV)           for each species LDAUJ =   0.0  0.0  0.0  0.0
 Exchange correlation treatment:
   GGA     =    PE    GGA type
   LEXCH   =     8    internal setting for exchange type
   LIBXC   =     F    Libxc                    
   VOSKOWN =     0    Vosko Wilk Nusair interpolation
   LHFCALC =     F    Hartree Fock is set to
   LHFONE  =     F    Hartree Fock one center treatment
   AEXX    =    0.0000 exact exchange contribution

 Linear response parameters
   LEPSILON=     F    determine dielectric tensor
   LRPA    =     F    only Hartree local field effects (RPA)
   LNABLA  =     F    use nabla operator in PAW spheres
   LVEL    =     F    velocity operator in full k-point grid
   CSHIFT  =0.1000    complex shift for real part using Kramers Kronig
   OMEGAMAX=  -1.0    maximum frequency
   DEG_THRESHOLD= 0.2000000E-02 threshold for treating states as degnerate
   RTIME   =   -0.100 relaxation time in fs
  (WPLASMAI=    0.000 imaginary part of plasma frequency in eV, 0.658/RTIME)
   DFIELD  = 0.0000000 0.0000000 0.0000000 field for delta impulse in time

  Optional k-point grid parameters
   LKPOINTS_OPT  =     F    use optional k-point grid
   KPOINTS_OPT_MODE=     1    mode for optional k-point grid

 Orbital magnetization related:
   ORBITALMAG=     F  switch on orbital magnetization
   LCHIMAG   =     F  perturbation theory with respect to B field
   DQ        =  0.001000  dq finite difference perturbation B field
   LLRAUG    =     F  two centre corrections for induced B field
   LBONE     =     F  B-component reconstruction in AE one-centre
   LVGVCALC  =     T  calculate vGv susceptibility
   LVGVAPPL  =     F  apply vGv susceptibility instead of pGv for G=0

 Random number generation:
   RANDOM_GENERATOR = DEFAULT
   PCG_SEED         = not used


--------------------------------------------------------------------------------------------------------


 conjugate gradient relaxation of ions
 charge density and potential will be updated during run
 spin polarized calculation
 Conjugate gradient for all bands (Freysoldt, et al. PRB 79, 241103 (2009))
 preconditioned conjugated gradient                                        
 perform sub-space diagonalisation
    before iterative eigenvector-optimisation
 modified Broyden-mixing scheme, WC =      100.0
 initial mixing is a Kerker type mixing with AMIX =  0.4000 and BMIX =      1.0000
 Hartree-type preconditioning will be used
 using additional bands          176
 real space projection scheme for non local part
 use partial core corrections
 no Harris-corrections to forces 
 use gradient corrections 
 use of overlap-Matrix (Vanderbilt PP)
 Gauss-broadening in eV      SIGMA  =   0.05


--------------------------------------------------------------------------------------------------------


  energy-cutoff  :      520.00
  volume of cell :     1920.79
      direct lattice vectors                 reciprocal lattice vectors
    10.406300000  0.000000000  0.000000000     0.096095634  0.000000000  0.000000000
     0.000000000 18.656100000  0.000000000     0.000000000  0.053601771  0.000000000
     0.000000000  0.000000000  9.893800000     0.000000000  0.000000000  0.101073400

  length of vectors
    10.406300000 18.656100000  9.893800000     0.096095634  0.053601771  0.101073400



 old parameters found on file WAVECAR:
  energy-cutoff  :      520.00
  volume of cell :     1920.79
      direct lattice vectors                 reciprocal lattice vectors
    10.406300000  0.000000000  0.000000000     0.096095634  0.000000000  0.000000000
     0.000000000 18.656100000  0.000000000     0.000000000  0.053601771  0.000000000
     0.000000000  0.000000000  9.893800000     0.000000000  0.000000000  0.101073400

  length of vectors


 k-points in units of 2pi/SCALE and weight: KPOINTS created by Atomic Simulation Env
   0.00000000  0.00000000  0.00000000       0.111
   0.03203188  0.00000000  0.00000000       0.222
   0.00000000  0.00000000  0.03369113       0.222
   0.03203188  0.00000000  0.03369113       0.222
  -0.03203188  0.00000000  0.03369113       0.222

 k-points in reciprocal lattice and weights: KPOINTS created by Atomic Simulation Env
   0.00000000  0.00000000  0.00000000       0.111
   0.33333333  0.00000000  0.00000000       0.222
   0.00000000  0.00000000  0.33333333       0.222
   0.33333333  0.00000000  0.33333333       0.222
  -0.33333333  0.00000000  0.33333333       0.222

 position of ions in fractional coordinates (direct lattice) 
   0.78217474  0.24689867  0.25474017
   0.27947817  0.24965232  0.49228251
   0.21965741  0.08339788  0.24442723
   0.71844406  0.08201365  0.00709039
   0.77997654  0.24749238  0.75670880
   0.28256690  0.25051429  0.99307508
   0.21786925  0.08193359  0.74438894
   0.71881818  0.08234610  0.50683325
   0.78249389  0.58436398  0.25384009
   0.27962734  0.58284581  0.49064103
   0.21935853  0.41607081  0.24594413
   0.72129123  0.41384628  0.00843177
   0.78332722  0.58693426  0.75691517
   0.28275019  0.58243825  0.99443081
   0.20896510  0.41351125  0.73692151
   0.72160351  0.41262442  0.49492805
   0.78107370  0.91680152  0.25685043
   0.28045607  0.91672738  0.49413483
   0.21961261  0.75039228  0.24444871
   0.71805973  0.75180439  0.00737630
   0.77938240  0.91684920  0.75748828
   0.28046215  0.91682643  0.99457693
   0.21799632  0.75145991  0.74454399
   0.71939513  0.75160346  0.50609100
   0.60763614  0.24852493  0.03071946
   0.10733462  0.24916044  0.21888268
   0.39273220  0.08235351  0.47163214
   0.89342102  0.08241639  0.27986127
   0.60651751  0.24955792  0.52818292
   0.10649595  0.24500920  0.71853673
   0.39261599  0.08287385  0.97113351
   0.89179996  0.08179659  0.78115478
   0.60786678  0.58379789  0.03045533
   0.10749404  0.58393325  0.21781974
   0.39449105  0.41640743  0.46843797
   0.89507570  0.41688449  0.27735888
   0.60854420  0.58457900  0.52735312
   0.10859791  0.58767447  0.71823911
   0.39225689  0.41524195  0.97830766
   0.88567245  0.41665331  0.77697081
   0.60594928  0.91662341  0.03095281
   0.10706027  0.91656053  0.22096847
   0.39289618  0.75029015  0.47187283
   0.89327043  0.75027611  0.27957558
   0.60654200  0.91658398  0.52987053
   0.10606406  0.91655293  0.72114202
   0.39251558  0.75021656  0.97128806
   0.89195135  0.75121336  0.78090221
   0.63633544  0.24935551  0.37598285
   0.13371031  0.24865228  0.37156147
   0.36545542  0.08274748  0.12391159
   0.86538758  0.08203063  0.12744978
   0.96118257  0.24911087  0.19281457
   0.46266377  0.24756192  0.05908547
   0.03918854  0.08261759  0.30546377
   0.53896287  0.08323910  0.44547074
   0.67966490  0.31318875  0.10246517
   0.17850223  0.18491061  0.14638803
   0.32078412  0.14647571  0.39855929
   0.82212606  0.01827017  0.35345748
   0.32268764  0.01771000  0.39830027
   0.82254791  0.14709887  0.35231433
   0.68045830  0.18444613  0.10312474
   0.17774691  0.31422348  0.14794222
   0.63369340  0.24823631  0.87779339
   0.13695551  0.24929819  0.87034349
   0.36616154  0.08170648  0.62416883
   0.86441978  0.08248735  0.62837726
   0.95952585  0.24749576  0.69685831
   0.46062623  0.24846984  0.55250774
   0.03685661  0.08028797  0.80904641
   0.53885546  0.08258892  0.94612003
   0.67445360  0.31517179  0.60011897
   0.17198192  0.17777072  0.65017132
   0.32256131  0.14723479  0.89811743
   0.81884608  0.01760429  0.85299207
   0.32184679  0.01812625  0.89895747
   0.82069264  0.14637043  0.85372921
   0.67890240  0.18592614  0.60247789
   0.17797273  0.30609247  0.63795744
   0.63569986  0.58439122  0.37529805
   0.13355838  0.58417246  0.37056930
   0.36849073  0.41660850  0.13117453
   0.86938083  0.41631908  0.12445529
   0.96143399  0.58372866  0.19149768
   0.46286513  0.58560111  0.05917794
   0.04011324  0.41696848  0.30589829
   0.54045994  0.41703395  0.43844305
   0.68155351  0.64829986  0.09928429
   0.17856894  0.51914859  0.14634916
   0.32208270  0.48094220  0.39670679
   0.82351326  0.35209638  0.34922456
   0.32182602  0.35204176  0.39744547
   0.82274364  0.48108618  0.34879317
   0.67947676  0.51944191  0.10247415
   0.17860974  0.64838614  0.14598953
   0.63078373  0.58173925  0.87564543
   0.13901370  0.58265272  0.87003726
   0.37316286  0.41706076  0.62163235
   0.85875923  0.41596372  0.62387298
   0.96133981  0.58530066  0.69694137
   0.46265601  0.58265874  0.55650307
   0.02869941  0.41763642  0.80502655
   0.54009098  0.41474840  0.94896958
   0.67977797  0.64845426  0.60146291
   0.17987023  0.52701562  0.63684002
   0.33357920  0.48255571  0.90489015
   0.81355487  0.35210694  0.84987487
   0.32525588  0.34993909  0.90870115
   0.81058786  0.48078775  0.84753761
   0.67668926  0.51939362  0.60118292
   0.17281534  0.65546524  0.65100128
   0.63465685  0.91655698  0.37740093
   0.13421327  0.91647367  0.37365167
   0.36569705  0.75041294  0.12415021
   0.86533604  0.75113787  0.12709215
   0.96091769  0.91656106  0.19551387
   0.46036381  0.91662957  0.05761879
   0.03911861  0.75026742  0.30520054
   0.53904430  0.74988083  0.44528673
   0.67770496  0.98089541  0.10359499
   0.17780520  0.85204992  0.14831532
   0.32191164  0.81449266  0.39799563
   0.82250985  0.68551793  0.35138400
   0.32188857  0.68553439  0.39973154
   0.82195116  0.81446642  0.35337715
   0.67743480  0.85221236  0.10361787
   0.17791530  0.98096729  0.14822144
   0.63272360  0.91652233  0.87823881
   0.13430988  0.91663581  0.87354546
   0.36661002  0.75144634  0.62446658
   0.86513793  0.75092423  0.62813196
   0.95990974  0.91643308  0.69627271
   0.46078570  0.91637925  0.55555327
   0.03678271  0.75274066  0.80970320
   0.53872844  0.75058404  0.94587674
   0.67733492  0.98103682  0.60284726
   0.17691939  0.85214987  0.64805131
   0.32146926  0.81483956  0.89908411
   0.82082752  0.68600815  0.85237162
   0.32272632  0.68565952  0.89856609
   0.81823674  0.81485606  0.85340377
   0.67765949  0.85218149  0.60270867
   0.17682031  0.98090132  0.64779294
   0.52614034  0.47387013  0.74557487

 position of ions in cartesian coordinates  (Angst):
   8.13954502  4.60616635  2.52034825
   2.90833368  4.65753855  4.87054474
   2.28582092  1.55587912  2.41831417
   7.47634440  1.53005487  0.07015088
   8.11666989  4.61724254  7.48672549
   2.94047593  4.67361967  9.82528621
   2.26721279  1.52856128  7.36483525
   7.48023760  1.53625704  5.01450680
   8.14286612 10.90195276  2.51144306
   2.90988597 10.87362970  4.85430417
   2.28271071  7.76225863  2.43332207
   7.50597292  7.72075756  0.08342227
   8.15153807 10.94990432  7.48876731
   2.94238335 10.86602623  9.83869953
   2.17455353  7.71450729  7.29095403
   7.50922260  7.69796245  4.89671916
   8.12808723 17.10394092  2.54122683
   2.91850998 17.10255759  4.88887122
   2.28535470 13.99939350  2.41852668
   7.47234494 14.02573786  0.07297960
   8.11048704 17.10483036  7.49443756
   2.91857329 17.10440552  9.84014520
   2.26853509 14.01931120  7.36636929
   7.48624150 14.02198928  5.00716312
   6.32324399  4.63650591  0.30393217
   1.11695624  4.64836201  2.16558150
   4.08688909  1.53639537  4.66623406
   9.29720718  1.53756846  2.76889148
   6.31160314  4.65577753  5.22573615
   1.10822879  4.57091611  7.10905869
   4.08567973  1.54610288  9.60820071
   9.28033790  1.52600534  7.72858915
   6.32564406 10.89139175  0.30131894
   1.11861521 10.89391708  2.15506492
   4.10519220  7.76853873  4.63463158
   9.31442630  7.77743865  2.74413331
   6.33269354 10.90596429  5.21752635
   1.13010240 10.96371363  7.10611410
   4.08194287  7.74679538  9.67918037
   9.21657318  7.77312578  7.68719379
   6.30569004 17.10061802  0.30624091
   1.11410131 17.09944492  2.18621783
   4.08859551 13.99748813  4.66861538
   9.29564004 13.99722620  2.76606492
   6.31185800 17.09988244  5.24243307
   1.10373446 17.09930307  7.13483488
   4.08463487 13.99611525  9.60972985
   9.28191330 14.01471148  7.72609025
   6.62189745  4.65200124  3.71989916
   1.39142965  4.63888173  3.67615483
   3.80303869  1.54374530  1.22595648
   9.00548276  1.53037163  1.26096260
  10.00235413  4.64743727  1.90766879
   4.81461798  4.61854002  0.58457983
   0.40780773  1.54132208  3.02219746
   5.60860934  1.55291690  4.40739842
   7.07279690  5.84288072  1.01376990
   1.85754773  3.44971078  1.44833389
   3.33817579  2.73266549  3.94326595
   8.55529037  0.34085007  3.49703763
   3.35798440  0.33039957  3.94070322
   8.55968034  2.74429127  3.48572753
   7.08105316  3.44104537  1.02029553
   1.84968768  5.86218473  1.46371077
   6.59440365  4.63112148  8.68471227
   1.42520017  4.65093190  8.61100445
   3.81038681  1.52432422  6.17540161
   8.99541158  1.53889234  6.21703893
   9.98511381  4.61730570  6.89457677
   4.79341469  4.63547820  5.46640109
   0.38354092  1.49786040  8.00454334
   5.60749157  1.54078706  9.36072234
   7.01856652  5.87987651  5.93745708
   1.78969550  3.31650833  6.43266504
   3.35666972  2.74682698  8.88579424
   8.52115795  0.32842732  8.43933291
   3.34923425  0.33816506  8.89410544
   8.54037382  2.73070132  8.44662601
   7.06486208  3.46865674  5.96079575
   1.85203759  5.71049181  6.31182327
   6.61528341 10.90246104  3.71312381
   1.38984859 10.89837985  3.66633857
   3.83462504  7.77228991  1.29781453
   9.04703769  7.76689039  1.23133570
  10.00497054 10.89010026  1.89463977
   4.81671340 10.92503282  0.58549473
   0.41743043  7.77900571  3.02649652
   5.62418829  7.78022708  4.33786784
   7.09245030 12.09474699  0.98229894
   1.85824196  9.68528796  1.44794936
   3.35168925  8.97250575  3.92493763
   8.56972601  6.56874533  3.45515792
   3.34901815  6.56772628  3.93224603
   8.56171712  8.97519197  3.45088989
   7.07083905  9.69076018  1.01385875
   1.85866656 12.09635674  1.44439122
   6.56412476 10.85298564  8.66346072
   1.44661824 10.87002745  8.60797467
   3.88324463  7.78072733  6.15030614
   8.93650617  7.76026071  6.17247451
  10.00399048 10.91942767  6.89539855
   4.81453722 10.87013981  5.50593003
   0.29865468  7.79146687  7.96477164
   5.62034872  7.73758767  9.38891520
   7.07397353 12.09762744  5.95075374
   1.87178361  9.83205607  6.30076780
   3.47132525  9.00260753  8.95280220
   8.46609602  6.56894221  8.40849200
   3.38471030  6.52849872  8.99050742
   8.43522044  8.96962438  8.38536765
   7.04183149  9.68985930  5.94798359
   1.79836825 12.22842499  6.44087646
   6.60442960 17.09937860  3.73392932
   1.39666351 17.09782445  3.69683488
   3.80555326 13.99977878  1.22831738
   9.00494643 14.01330326  1.25742427
   9.99959775 17.09945475  1.93437517
   4.79068389 17.10073296  0.57006881
   0.40707999 13.99706393  3.01959306
   5.60945671 13.98985181  4.40557790
   7.05240112 18.29968290  1.02494815
   1.85029429 15.89592860  1.46740208
   3.34990910 15.19525655  3.93768920
   8.55928429 12.78909098  3.47652304
   3.34966903 12.78939822  3.95486388
   8.55347036 15.19476706  3.49624282
   7.04958978 15.89895895  1.02517446
   1.85144003 18.30102390  1.46647324
   6.58431159 17.09873215  8.68911911
   1.39766889 17.10084927  8.64268408
   3.81505388 14.01905809  6.17834742
   9.00288483 14.00931754  6.21461201
   9.98910869 17.09706712  6.88878293
   4.79507418 17.09606296  5.49653299
   0.38277193 14.04320501  8.01104156
   5.60616982 14.00297097  9.35831533
   7.04855037 18.30232093  5.96445026
   1.84107630 15.89779319  6.41169003
   3.34530558 15.20172839  8.89535840
   8.54177745 12.79823667  8.43319429
   3.35838688 12.79173266  8.89023321
   8.51481698 15.20203623  8.44340618
   7.05192796 15.89838313  5.96307907
   1.84004516 18.29979310  6.40913379
   5.47517424  8.84056853  7.37656860



--------------------------------------------------------------------------------------------------------


 k-point   1 :   0.0000 0.0000 0.0000  plane waves:   51751
 k-point   2 :   0.3333 0.0000 0.0000  plane waves:   51719
 k-point   3 :   0.0000 0.0000 0.3333  plane waves:   51701
 k-point   4 :   0.3333 0.0000 0.3333  plane waves:   51716
 k-point   5 :  -0.3333 0.0000 0.3333  plane waves:   51716

 maximum and minimum number of plane-waves per node :     12949    12909

 maximum number of plane-waves:     51751
 maximum index in each direction: 
   IXMAX=   19   IYMAX=   34   IZMAX=   18
   IXMIN=  -19   IYMIN=  -34   IZMIN=  -18


 real space projection operators:
  total allocation   :      41636.75 KBytes
  max/ min on nodes  :      10444.66      10373.14


 parallel 3D FFT for wavefunctions:
    minimum data exchange during FFTs selected (reduces bandwidth)
 parallel 3D FFT for charge:
    minimum data exchange during FFTs selected (reduces bandwidth)


 total amount of memory used by VASP MPI-rank0   280314. kBytes
=======================================================================

   base      :      30000. kBytes
   nonlr-proj:      27496. kBytes
   fftplans  :       9556. kBytes
   grid      :      26700. kBytes
   one-center:       1150. kBytes
   wavefun   :     185412. kBytes

     INWAV:  cpu time     42.6014: real time     76.1922
 Broyden mixing: mesh for mixing (old mesh)
   NGX = 39   NGY = 69   NGZ = 37
  (NGX  =160   NGY  =280   NGZ  =160)
  gives a total of  99567 points

 charge density for first step will be calculated from the start-wavefunctions


--------------------------------------------------------------------------------------------------------


 Maximum index for non-local projection operator         1444
 Maximum index for augmentation-charges          697 (set IRDMAX)


--------------------------------------------------------------------------------------------------------


 initial charge from wavefunction
 First call to EWALD:  gamma=   0.143
 Maximum number of real-space cells 3x 2x 3
 Maximum number of reciprocal cells 2x 4x 2

    FEWALD:  cpu time      0.0036: real time      0.0036


--------------------------------------- Ionic step        1  -------------------------------------------




--------------------------------------- Iteration      1(   1)  ---------------------------------------


    POTLOK:  cpu time      0.1128: real time      0.1138
    SETDIJ:  cpu time      0.4464: real time      0.4486
    TRIAL :  cpu time      5.1292: real time      5.1732
    CORREC:  cpu time      9.6627: real time      9.7282
    CHARGE:  cpu time      0.1860: real time      0.1877
    --------------------------------------------
      LOOP:  cpu time     15.5801: real time     15.7083

 eigenvalue-minimisations  :     0
 total energy-change (2. order) :-0.1017217E+04  (-0.1153531E-01)
 number of electron    1039.0000043 magnetization     119.0000013
 augmentation part      257.1454809 magnetization      80.7032377

 Free energy of the ion-electron system (eV)
  ---------------------------------------------------
  alpha Z        PSCENC =      2648.81395470
  Ewald energy   TEWEN  =    -57959.01431684
  -Hartree energ DENC   =    -40768.57712305
  -exchange      EXHF   =         0.00000000
  -V(xc)+E(xc)   XCENC  =      4587.09564066
  PAW double counting   =    154049.39593234  -156110.10031646
  entropy T*S    EENTRO =        -0.00000000
  eigenvalues    EBANDS =    -12940.27167324
  atomic energy  EATOM  =    105475.44126576
  ---------------------------------------------------
  free energy    TOTEN  =     -1017.21663613 eV

  energy without entropy =    -1017.21663613  energy(sigma->0) =    -1017.21663613


--------------------------------------------------------------------------------------------------------




--------------------------------------- Iteration      1(   2)  ---------------------------------------


    POTLOK:  cpu time      0.1095: real time      0.1102
    SETDIJ:  cpu time      0.4432: real time      0.4454
    TRIAL :  cpu time      5.0760: real time      5.1156
    CORREC:  cpu time     12.2858: real time     13.4728
    CHARGE:  cpu time      0.1963: real time      0.1981
    --------------------------------------------
      LOOP:  cpu time     18.1226: real time     19.3539

 eigenvalue-minimisations  :     0
 total energy-change (2. order) :-0.2303100E-01  (-0.3369003E-03)
 number of electron    1039.0000043 magnetization     119.0000013
 augmentation part      257.1468319 magnetization      80.7035531

 Free energy of the ion-electron system (eV)
  ---------------------------------------------------
  alpha Z        PSCENC =      2648.81395470
  Ewald energy   TEWEN  =    -57959.01431684
  -Hartree energ DENC   =    -40768.12843798
  -exchange      EXHF   =         0.00000000
  -V(xc)+E(xc)   XCENC  =      4587.09097143
  PAW double counting   =    154047.82846360  -156108.52546473
  entropy T*S    EENTRO =        -0.00000000
  eigenvalues    EBANDS =    -12940.74610306
  atomic energy  EATOM  =    105475.44126576
  ---------------------------------------------------
  free energy    TOTEN  =     -1017.23966713 eV

  energy without entropy =    -1017.23966713  energy(sigma->0) =    -1017.23966713


--------------------------------------------------------------------------------------------------------




--------------------------------------- Iteration      1(   3)  ---------------------------------------


    POTLOK:  cpu time      0.1085: real time      0.1091
    SETDIJ:  cpu time      0.4469: real time      0.4492
    TRIAL :  cpu time      5.0688: real time      5.1091
    CORREC:  cpu time      2.4252: real time      2.4433
    CHARGE:  cpu time      0.1952: real time      0.1972
    --------------------------------------------
      LOOP:  cpu time      8.2454: real time      8.3086

 eigenvalue-minimisations  :     0
 total energy-change (2. order) :-0.1485004E-01  (-0.1864568E-02)
 number of electron    1039.0000043 magnetization     119.0000013
 augmentation part      257.1470171 magnetization      80.7034354

 Free energy of the ion-electron system (eV)
  ---------------------------------------------------
  alpha Z        PSCENC =      2648.81395470
  Ewald energy   TEWEN  =    -57959.01431684
  -Hartree energ DENC   =    -40767.75340947
  -exchange      EXHF   =         0.00000000
  -V(xc)+E(xc)   XCENC  =      4587.09223729
  PAW double counting   =    154046.58723850  -156107.31586515
  entropy T*S    EENTRO =        -0.00000000
  eigenvalues    EBANDS =    -12941.10562196
  atomic energy  EATOM  =    105475.44126576
  ---------------------------------------------------
  free energy    TOTEN  =     -1017.25451717 eV

  energy without entropy =    -1017.25451717  energy(sigma->0) =    -1017.25451717


--------------------------------------------------------------------------------------------------------




--------------------------------------- Iteration      1(   4)  ---------------------------------------


    POTLOK:  cpu time      0.1089: real time      0.1100
    SETDIJ:  cpu time      0.4452: real time      0.4475
    TRIAL :  cpu time      5.1080: real time      5.1555
    CORREC:  cpu time      2.4295: real time      2.4474
    CHARGE:  cpu time      0.1956: real time      0.1973
    --------------------------------------------
      LOOP:  cpu time      8.2878: real time      8.3585

 eigenvalue-minimisations  :     0
 total energy-change (2. order) :-0.1865058E-02  (-0.1158091E-02)
 number of electron    1039.0000043 magnetization     119.0000013
 augmentation part      257.1468536 magnetization      80.7031504

 Free energy of the ion-electron system (eV)
  ---------------------------------------------------
  alpha Z        PSCENC =      2648.81395470
  Ewald energy   TEWEN  =    -57959.01431684
  -Hartree energ DENC   =    -40767.85966289
  -exchange      EXHF   =         0.00000000
  -V(xc)+E(xc)   XCENC  =      4587.09466848
  PAW double counting   =    154046.60508265  -156107.33481372
  entropy T*S    EENTRO =        -0.00000000
  eigenvalues    EBANDS =    -12941.00256037
  atomic energy  EATOM  =    105475.44126576
  ---------------------------------------------------
  free energy    TOTEN  =     -1017.25638222 eV

  energy without entropy =    -1017.25638222  energy(sigma->0) =    -1017.25638222


--------------------------------------------------------------------------------------------------------




--------------------------------------- Iteration      1(   5)  ---------------------------------------


    POTLOK:  cpu time      0.1090: real time      0.1096
    SETDIJ:  cpu time      1.3520: real time      1.3593
    TRIAL :  cpu time      5.9837: real time      7.9647
    CORREC:  cpu time      2.4258: real time      2.4425
    CHARGE:  cpu time      0.1958: real time      0.1975
    --------------------------------------------
      LOOP:  cpu time     10.0671: real time     12.0744

 eigenvalue-minimisations  :     0
 total energy-change (2. order) :-0.1158585E-02  (-0.4761627E-03)
 number of electron    1039.0000043 magnetization     119.0000013
 augmentation part      257.1465668 magnetization      80.7028892

 Free energy of the ion-electron system (eV)
  ---------------------------------------------------
  alpha Z        PSCENC =      2648.81395470
  Ewald energy   TEWEN  =    -57959.01431684
  -Hartree energ DENC   =    -40768.04132533
  -exchange      EXHF   =         0.00000000
  -V(xc)+E(xc)   XCENC  =      4587.09590277
  PAW double counting   =    154046.62786968  -156107.34724650
  entropy T*S    EENTRO =        -0.00000000
  eigenvalues    EBANDS =    -12940.83364506
  atomic energy  EATOM  =    105475.44126576
  ---------------------------------------------------
  free energy    TOTEN  =     -1017.25754081 eV

  energy without entropy =    -1017.25754081  energy(sigma->0) =    -1017.25754081


--------------------------------------------------------------------------------------------------------




--------------------------------------- Iteration      1(   6)  ---------------------------------------


    POTLOK:  cpu time      0.1075: real time      0.1088
    SETDIJ:  cpu time      0.4462: real time      0.4485
    TRIAL :  cpu time      5.0788: real time      5.1206
    CORREC:  cpu time      2.4319: real time      2.4483
    CHARGE:  cpu time      0.1968: real time      0.1986
    --------------------------------------------
      LOOP:  cpu time      8.2654: real time      8.3371

 eigenvalue-minimisations  :     0
 total energy-change (2. order) :-0.4759355E-03  (-0.2751161E-03)
 number of electron    1039.0000043 magnetization     119.0000013
 augmentation part      257.1465203 magnetization      80.7027487

 Free energy of the ion-electron system (eV)
  ---------------------------------------------------
  alpha Z        PSCENC =      2648.81395470
  Ewald energy   TEWEN  =    -57959.01431684
  -Hartree energ DENC   =    -40768.07603686
  -exchange      EXHF   =         0.00000000
[...]
      0.41743      7.77901      3.02650         0.003666      0.000258     -0.009516
      5.62419      7.78023      4.33787        -0.002712      0.001288     -0.013200
      7.09245     12.09475      0.98230         0.006456     -0.002839     -0.011827
      1.85824      9.68529      1.44795         0.006285     -0.000628     -0.001514
      3.35169      8.97251      3.92494         0.009109     -0.007731      0.002477
      8.56973      6.56875      3.45516        -0.003028      0.001466     -0.001797
      3.34902      6.56773      3.93225         0.002902      0.010490      0.018546
      8.56172      8.97519      3.45089        -0.002999      0.002463     -0.008203
      7.07084      9.69076      1.01386         0.000119     -0.005589     -0.003024
      1.85867     12.09636      1.44439        -0.001893      0.000620     -0.000737
      6.56412     10.85299      8.66346        -0.007969     -0.018019     -0.011457
      1.44662     10.87003      8.60797         0.004822     -0.008631     -0.002956
      3.88324      7.78073      6.15031         0.020123      0.005517     -0.006532
      8.93651      7.76026      6.17247         0.007870     -0.007735     -0.005271
     10.00399     10.91943      6.89540         0.005353     -0.003373     -0.003595
      4.81454     10.87014      5.50593         0.006408     -0.012586      0.011905
      0.29865      7.79147      7.96477         0.003309      0.003654     -0.001562
      5.62035      7.73759      9.38892        -0.001721     -0.012531     -0.015882
      7.07397     12.09763      5.95075         0.003564      0.013506     -0.006206
      1.87178      9.83206      6.30077         0.007891     -0.004778     -0.004724
      3.47133      9.00261      8.95280         0.015554     -0.004200     -0.008761
      8.46610      6.56894      8.40849         0.012472     -0.001965      0.002024
      3.38471      6.52850      8.99051        -0.007679     -0.004633     -0.004469
      8.43522      8.96962      8.38537         0.008520     -0.002504     -0.005277
      7.04183      9.68986      5.94798         0.017517      0.012132     -0.003429
      1.79837     12.22842      6.44088         0.005481     -0.003410      0.001055
      6.60443     17.09938      3.73393        -0.001052     -0.001741      0.002185
      1.39666     17.09782      3.69683         0.000908     -0.002015      0.000101
      3.80555     13.99978      1.22832        -0.000494     -0.001382      0.000663
      9.00495     14.01330      1.25742        -0.001518     -0.000828     -0.001173
      9.99960     17.09945      1.93438        -0.001639     -0.000888      0.000838
      4.79068     17.10073      0.57007        -0.000510     -0.000899     -0.000230
      0.40708     13.99706      3.01959        -0.000913     -0.000928     -0.000562
      5.60946     13.98985      4.40558        -0.000981      0.000189     -0.000719
      7.05240     18.29968      1.02495        -0.001367     -0.001817      0.002418
      1.85029     15.89593      1.46740        -0.000453     -0.001138     -0.000087
      3.34991     15.19526      3.93769        -0.003052     -0.007409      0.000132
      8.55928     12.78909      3.47652         0.003568     -0.005752     -0.002078
      3.34967     12.78940      3.95486         0.003422     -0.008377      0.003051
      8.55347     15.19477      3.49624        -0.001951     -0.003105      0.000483
      7.04959     15.89896      1.02517        -0.002223     -0.001964      0.001932
      1.85144     18.30102      1.46647        -0.001105     -0.001461     -0.000022
      6.58431     17.09873      8.68912         0.001317     -0.002089      0.001195
      1.39767     17.10085      8.64268        -0.000943     -0.002203      0.000334
      3.81505     14.01906      6.17835         0.000207     -0.001541      0.000419
      9.00288     14.00932      6.21461         0.000662      0.000487      0.000933
      9.98911     17.09707      6.88878        -0.002605     -0.002726      0.000161
      4.79507     17.09606      5.49653        -0.000786     -0.004441      0.002012
      0.38277     14.04321      8.01104         0.000616     -0.006380      0.001543
      5.60617     14.00297      9.35832        -0.000488     -0.002302     -0.001050
      7.04855     18.30232      5.96445        -0.001677     -0.000761      0.002346
      1.84108     15.89779      6.41169        -0.000719     -0.002777      0.001166
      3.34531     15.20173      8.89536        -0.001475     -0.003201     -0.000051
      8.54178     12.79824      8.43319        -0.000448     -0.008394     -0.004713
      3.35839     12.79173      8.89023         0.000289     -0.004811      0.000965
      8.51482     15.20204      8.44341        -0.000459     -0.006707      0.002759
      7.05193     15.89838      5.96308         0.000229     -0.000955      0.002366
      1.84005     18.29979      6.40913        -0.000525     -0.002391      0.001058
      5.47517      8.84057      7.37657        -0.127090      0.323933      0.070209
 -----------------------------------------------------------------------------------
    total drift:                                0.011624     -0.006097     -0.026426


--------------------------------------------------------------------------------------------------------



  FREE ENERGIE OF THE ION-ELECTRON SYSTEM (eV)
  ---------------------------------------------------
  free  energy   TOTEN  =     -1017.25848718 eV

  energy  without entropy=    -1017.25848718  energy(sigma->0) =    -1017.25848718



--------------------------------------------------------------------------------------------------------


    POTLOK:  cpu time      0.5687: real time      0.5718


--------------------------------------------------------------------------------------------------------




--------------------------------------------------------------------------------------------------------


 writing wavefunctions
     LOOP+:  cpu time    178.0512: real time    211.6692
    4ORBIT:  cpu time      0.0000: real time      0.0000



 total charge

# of ion       s       p       d       tot
------------------------------------------
    1        0.254   6.285   5.524  12.064
    2        0.255   6.286   5.527  12.069
    3        0.253   6.282   5.521  12.055
    4        0.254   6.285   5.523  12.061
    5        0.252   6.281   5.522  12.054
    6        0.253   6.283   5.520  12.056
    7        0.254   6.286   5.521  12.061
    8        0.252   6.280   5.520  12.053
    9        0.253   6.283   5.520  12.055
   10        0.255   6.284   5.527  12.066
   11        0.256   6.288   5.524  12.067
   12        0.256   6.288   5.528  12.072
   13        0.253   6.280   5.523  12.056
   14        0.253   6.282   5.521  12.056
   15        0.185   6.172   5.900  12.258
   16        0.259   6.293   5.543  12.094
   17        0.253   6.282   5.521  12.056
   18        0.253   6.282   5.520  12.054
   19        0.252   6.281   5.520  12.054
   20        0.254   6.286   5.524  12.063
   21        0.253   6.283   5.521  12.057
   22        0.253   6.283   5.520  12.055
   23        0.254   6.286   5.521  12.061
   24        0.252   6.281   5.521  12.055
   25        0.908   1.479   0.000   2.387
   26        0.909   1.481   0.000   2.389
   27        0.908   1.476   0.000   2.384
   28        0.908   1.479   0.000   2.387
   29        0.908   1.479   0.000   2.387
   30        0.908   1.479   0.000   2.387
   31        0.908   1.478   0.000   2.386
   32        0.908   1.479   0.000   2.388
   33        0.909   1.477   0.000   2.385
   34        0.909   1.480   0.000   2.389
   35        0.909   1.478   0.000   2.388
   36        0.909   1.481   0.000   2.390
   37        0.910   1.481   0.000   2.391
   38        0.908   1.479   0.000   2.387
   39        0.909   1.484   0.000   2.393
   40        0.910   1.489   0.000   2.399
   41        0.908   1.479   0.000   2.387
   42        0.908   1.478   0.000   2.386
   43        0.908   1.476   0.000   2.384
   44        0.908   1.478   0.000   2.387
   45        0.908   1.479   0.000   2.388
   46        0.908   1.478   0.000   2.385
   47        0.908   1.478   0.000   2.386
   48        0.908   1.479   0.000   2.387
   49        1.565   3.589   0.000   5.155
   50        1.566   3.591   0.000   5.157
   51        1.566   3.589   0.000   5.154
   52        1.566   3.589   0.000   5.154
   53        1.558   3.585   0.000   5.143
   54        1.559   3.586   0.000   5.145
   55        1.558   3.587   0.000   5.145
   56        1.558   3.583   0.000   5.141
   57        1.564   3.544   0.000   5.108
   58        1.565   3.543   0.000   5.108
   59        1.564   3.543   0.000   5.107
   60        1.564   3.543   0.000   5.107
   61        1.564   3.542   0.000   5.107
   62        1.564   3.544   0.000   5.108
   63        1.564   3.546   0.000   5.110
   64        1.564   3.542   0.000   5.107
   65        1.566   3.587   0.000   5.153
   66        1.565   3.588   0.000   5.153
   67        1.566   3.587   0.000   5.153
   68        1.565   3.587   0.000   5.152
   69        1.557   3.584   0.000   5.141
   70        1.558   3.588   0.000   5.145
   71        1.559   3.585   0.000   5.145
   72        1.558   3.586   0.000   5.144
   73        1.565   3.541   0.000   5.106
   74        1.565   3.548   0.000   5.113
   75        1.565   3.542   0.000   5.107
   76        1.564   3.546   0.000   5.110
   77        1.564   3.544   0.000   5.108
   78        1.564   3.544   0.000   5.108
   79        1.564   3.542   0.000   5.106
   80        1.565   3.553   0.000   5.118
   81        1.566   3.591   0.000   5.157
   82        1.566   3.590   0.000   5.157
   83        1.567   3.593   0.000   5.160
   84        1.566   3.589   0.000   5.155
   85        1.558   3.586   0.000   5.143
   86        1.559   3.586   0.000   5.146
   87        1.559   3.591   0.000   5.150
   88        1.557   3.583   0.000   5.140
   89        1.564   3.546   0.000   5.111
   90        1.564   3.541   0.000   5.105
   91        1.564   3.544   0.000   5.107
   92        1.564   3.546   0.000   5.110
   93        1.564   3.545   0.000   5.109
   94        1.565   3.544   0.000   5.109
   95        1.565   3.539   0.000   5.103
   96        1.565   3.542   0.000   5.107
   97        1.563   3.583   0.000   5.146
   98        1.564   3.588   0.000   5.153
   99        1.563   3.604   0.000   5.167
  100        1.565   3.591   0.000   5.156
  101        1.557   3.585   0.000   5.142
  102        1.558   3.581   0.000   5.139
  103        1.560   3.602   0.000   5.162
  104        1.555   3.597   0.000   5.152
  105        1.565   3.542   0.000   5.107
  106        1.567   3.546   0.000   5.113
  107        1.563   3.554   0.000   5.117
  108        1.564   3.541   0.000   5.105
  109        1.564   3.558   0.000   5.122
  110        1.564   3.539   0.000   5.103
  111        1.566   3.550   0.000   5.116
  112        1.565   3.549   0.000   5.114
  113        1.566   3.589   0.000   5.154
  114        1.566   3.588   0.000   5.154
  115        1.566   3.588   0.000   5.154
  116        1.566   3.588   0.000   5.154
  117        1.558   3.585   0.000   5.143
  118        1.558   3.586   0.000   5.145
  119        1.558   3.586   0.000   5.144
  120        1.558   3.583   0.000   5.141
  121        1.564   3.544   0.000   5.109
  122        1.564   3.543   0.000   5.107
  123        1.564   3.541   0.000   5.106
  124        1.565   3.542   0.000   5.106
  125        1.564   3.542   0.000   5.106
  126        1.564   3.542   0.000   5.106
  127        1.564   3.545   0.000   5.109
  128        1.565   3.543   0.000   5.107
  129        1.566   3.588   0.000   5.154
  130        1.566   3.589   0.000   5.155
  131        1.566   3.587   0.000   5.153
  132        1.566   3.587   0.000   5.153
  133        1.558   3.585   0.000   5.142
  134        1.558   3.587   0.000   5.145
  135        1.559   3.585   0.000   5.144
  136        1.558   3.586   0.000   5.144
  137        1.564   3.544   0.000   5.108
  138        1.564   3.545   0.000   5.109
  139        1.564   3.544   0.000   5.108
  140        1.563   3.545   0.000   5.109
  141        1.565   3.541   0.000   5.106
  142        1.564   3.546   0.000   5.110
  143        1.564   3.545   0.000   5.109
  144        1.564   3.544   0.000   5.108
  145        0.048   5.991   0.000   6.039
--------------------------------------------------
tot        177.926 534.547 132.930 845.403



 magnetization (x)

# of ion       s       p       d       tot
------------------------------------------
    1        0.024   0.031   4.289   4.344
    2        0.024   0.032   4.285   4.342
    3        0.024   0.031   4.290   4.345
    4        0.024   0.031   4.291   4.346
    5        0.024   0.031   4.287   4.343
    6        0.023   0.031   4.293   4.347
    7        0.023   0.031   4.295   4.349
    8        0.024   0.031   4.289   4.344
    9        0.024   0.031   4.292   4.347
   10        0.024   0.033   4.284   4.341
   11        0.025   0.031   4.291   4.346
   12        0.024   0.032   4.285   4.341
   13        0.024   0.030   4.284   4.339
   14        0.023   0.031   4.291   4.345
   15        0.027   0.020   3.738   3.785
   16        0.024   0.033   4.270   4.327
   17        0.024   0.031   4.291   4.345
   18        0.024   0.031   4.292   4.346
   19        0.024   0.031   4.290   4.345
   20        0.024   0.031   4.291   4.346
   21        0.024   0.031   4.292   4.346
   22        0.024   0.031   4.292   4.346
   23        0.023   0.031   4.295   4.349
   24        0.024   0.031   4.289   4.344
   25        0.003   0.011   0.000   0.015
   26        0.003   0.012   0.000   0.015
   27        0.003   0.011   0.000   0.015
   28        0.003   0.011   0.000   0.015
   29        0.003   0.011   0.000   0.015
   30        0.004   0.012   0.000   0.016
   31        0.003   0.012   0.000   0.015
   32        0.003   0.011   0.000   0.015
   33        0.003   0.010   0.000   0.013
   34        0.003   0.012   0.000   0.015
   35        0.003   0.010   0.000   0.013
   36        0.004   0.012   0.000   0.015
   37        0.003   0.010   0.000   0.013
   38        0.004   0.012   0.000   0.016
   39        0.004   0.012   0.000   0.016
   40        0.003   0.010   0.000   0.013
   41        0.003   0.011   0.000   0.015
   42        0.003   0.011   0.000   0.015
   43        0.003   0.011   0.000   0.015
   44        0.003   0.011   0.000   0.015
   45        0.003   0.012   0.000   0.015
   46        0.004   0.012   0.000   0.015
   47        0.003   0.012   0.000   0.015
   48        0.003   0.011   0.000   0.015
   49        0.007   0.108   0.000   0.115
   50        0.007   0.108   0.000   0.115
   51        0.007   0.112   0.000   0.119
   52        0.007   0.108   0.000   0.115
   53        0.008   0.105   0.000   0.113
   54        0.008   0.095   0.000   0.102
   55        0.008   0.099   0.000   0.107
   56        0.008   0.105   0.000   0.113
   57        0.010   0.127   0.000   0.137
   58        0.010   0.121   0.000   0.131
   59        0.010   0.122   0.000   0.132
   60        0.010   0.126   0.000   0.136
   61        0.010   0.126   0.000   0.136
   62        0.010   0.126   0.000   0.136
   63        0.010   0.128   0.000   0.139
   64        0.010   0.125   0.000   0.135
   65        0.007   0.108   0.000   0.115
   66        0.008   0.110   0.000   0.117
   67        0.007   0.106   0.000   0.114
   68        0.007   0.111   0.000   0.118
   69        0.008   0.109   0.000   0.117
   70        0.008   0.096   0.000   0.103
   71        0.008   0.096   0.000   0.104
   72        0.008   0.105   0.000   0.113
   73        0.010   0.123   0.000   0.132
   74        0.010   0.126   0.000   0.136
   75        0.010   0.121   0.000   0.131
   76        0.010   0.128   0.000   0.138
   77        0.010   0.122   0.000   0.132
   78        0.010   0.128   0.000   0.138
   79        0.010   0.125   0.000   0.135
   80        0.008   0.111   0.000   0.119
   81        0.007   0.100   0.000   0.107
   82        0.008   0.110   0.000   0.118
   83        0.007   0.103   0.000   0.111
   84        0.007   0.111   0.000   0.118
   85        0.008   0.105   0.000   0.113
   86        0.007   0.094   0.000   0.101
   87        0.007   0.099   0.000   0.106
   88        0.007   0.094   0.000   0.101
   89        0.010   0.121   0.000   0.131
   90        0.010   0.124   0.000   0.135
   91        0.010   0.126   0.000   0.137
   92        0.010   0.128   0.000   0.138
   93        0.010   0.124   0.000   0.134
   94        0.010   0.121   0.000   0.131
   95        0.010   0.121   0.000   0.130
   96        0.010   0.122   0.000   0.131
   97        0.006   0.093   0.000   0.100
   98        0.008   0.112   0.000   0.119
   99        0.003   0.027   0.000   0.030
  100        0.008   0.117   0.000   0.125
  101        0.008   0.116   0.000   0.124
  102        0.007   0.082   0.000   0.089
  103        0.003   0.045   0.000   0.048
  104        0.007   0.091   0.000   0.098
  105        0.010   0.121   0.000   0.131
  106        0.008   0.116   0.000   0.124
  107        0.008   0.084   0.000   0.092
  108        0.010   0.129   0.000   0.139
  109        0.009   0.092   0.000   0.100
  110        0.010   0.121   0.000   0.131
  111        0.008   0.102   0.000   0.110
  112        0.010   0.126   0.000   0.136
  113        0.007   0.109   0.000   0.117
  114        0.007   0.111   0.000   0.118
  115        0.007   0.112   0.000   0.119
  116        0.007   0.109   0.000   0.116
  117        0.008   0.104   0.000   0.112
  118        0.008   0.100   0.000   0.107
  119        0.008   0.100   0.000   0.108
  120        0.008   0.104   0.000   0.112
  121        0.010   0.126   0.000   0.136
  122        0.010   0.125   0.000   0.135
  123        0.010   0.125   0.000   0.135
  124        0.010   0.124   0.000   0.134
  125        0.010   0.120   0.000   0.129
  126        0.010   0.126   0.000   0.137
  127        0.010   0.127   0.000   0.137
  128        0.010   0.124   0.000   0.134
  129        0.007   0.110   0.000   0.117
  130        0.007   0.109   0.000   0.116
  131        0.007   0.106   0.000   0.113
  132        0.007   0.109   0.000   0.116
  133        0.008   0.102   0.000   0.110
  134        0.008   0.100   0.000   0.108
  135        0.008   0.095   0.000   0.103
  136        0.008   0.105   0.000   0.113
  137        0.010   0.126   0.000   0.136
  138        0.010   0.123   0.000   0.134
  139        0.010   0.121   0.000   0.131
  140        0.010   0.129   0.000   0.139
  141        0.010   0.121   0.000   0.131
  142        0.010   0.126   0.000   0.137
  143        0.010   0.126   0.000   0.136
  144        0.010   0.124   0.000   0.134
  145        0.000   0.000   0.000   0.000
--------------------------------------------------
tot          1.485  11.722 102.388 115.594


 total amount of memory used by VASP MPI-rank0   280314. kBytes
=======================================================================

   base      :      30000. kBytes
   nonlr-proj:      27496. kBytes
   fftplans  :       9556. kBytes
   grid      :      26700. kBytes
   one-center:       1150. kBytes
   wavefun   :     185412. kBytes

  
  
 General timing and accounting informations for this job:
 ========================================================
  
                  Total CPU time used (sec):      249.718
                            User time (sec):      238.890
                          System time (sec):       10.827
                         Elapsed time (sec):      325.928
  
                   Maximum memory used (kb):      895016.
                   Average memory used (kb):          N/A
  
                          Minor page faults:        95597
                          Major page faults:           29
                 Voluntary context switches:       190677
