 vasp.6.4.0 14Feb23 (build Mar 11 2024 14:58:30) complex                         
 executed on             epyc9004 date 2024.08.19  18:57:37
 running  288 mpi-ranks, on    3 nodes
 distrk:  each k-point on   96 cores,    3 groups
 distr:  one band on NCORE=   4 cores,   24 groups


--------------------------------------------------------------------------------------------------------


 INCAR:
   ENCUT = 520.000000
   SIGMA = 0.050000
   TIME = 0.050000
   NUPDOWN = 119.000000
   EDIFF = 1.00e-06
   EDIFFG = -2.00e-02
   SYMPREC = 1.00e-07
   ALGO = all
   GGA = PE
   PREC = accurate
   IBRION = 2
   ISIF = 2
   ISMEAR = 0
   ISPIN = 2
   ISYM = 0
   KPAR = 3
   LMAXMIX = 4
   LORBIT = 12
   NELM = 300
   NELMIN = 8
   NSW = 1
   NCORE = 4
   LASPH = .TRUE.
   LCHARG = .TRUE.
   LDAU = .TRUE.
   LWAVE = .TRUE.
   LREAL = auto
   LDAUL = 2 -1 -1 -1
   LDAUU = 5.300 0.000 0.000 0.000
   LDAUJ = 0.000 0.000 0.000 0.000
   MAGMOM = 1*4.3460 1*4.3405 1*4.3445 1*4.3460 1*4.3420 1*4.3445 1*4.3490 1*4.3450 1*4.3460 1*4.3405 1*4.3460 1*4.3430 1*4.3420 1*4.3445 1*3.7850 1*4.3300 1*4.3450 1*4.3460 1*4.3445 1*4.3460 1*4.3470 1*4.3465 1*4.3490 1*4.3450 1*0.0140 3*0.0150 1*0.0140 1*0.0160 2*0.0150 1*0.0140 1*0.0150 1*0.0130 1*0.0150 1*0.0140 2*0.0160 1*0.0130 8*0.0150 1*0.1095 1*0.1165 1*0.1190 1*0.1155 1*0.1120 1*0.1015 1*0.1080 1*0.1110 1*0.1330 1*0.1315 1*0.1305 2*0.1360 1*0.1345 1*0.1335 1*0.1350 1*0.1055 1*0.1185 1*0.1125 1*0.1170 1*0.1205 1*0.0940 1*0.1035 1*0.1120 1*0.1235 1*0.1360 1*0.1310 1*0.1380 1*0.1315 1*0.1375 1*0.1315 1*0.1220 1*0.1095 1*0.1165 1*0.1120 1*0.1170 1*0.1120 1*0.1015 1*0.1070 1*0.1040 1*0.1335 1*0.1350 1*0.1355 1*0.1345 1*0.1355 1*0.1345 1*0.1330 1*0.1315 1*0.1055 1*0.1185 1*0.0300 1*0.1250 1*0.1210 1*0.0940 1*0.0490 1*0.1000 1*0.1315 1*0.1220 1*0.0950 1*0.1375 1*0.0950 1*0.1375 1*0.1235 1*0.1360 1*0.1170 1*0.1180 1*0.1190 1*0.1155 1*0.1110 2*0.1080 1*0.1110 1*0.1365 1*0.1350 1*0.1360 1*0.1345 1*0.1305 1*0.1360 1*0.1365 1*0.1350 1*0.1170 1*0.1160 1*0.1125 1*0.1170 1*0.1095 1*0.1080 1*0.1035 1*0.1120 1*0.1360 1*0.1340 1*0.1315 1*0.1380 1*0.1315 1*0.1380 1*0.1360 1*0.1340 1*0.0000

 POTCAR:    PAW_PBE Fe_pv 02Aug2007               
 POTCAR:    PAW_PBE P 06Sep2000                   
 POTCAR:    PAW_PBE O 08Apr2002                   
 POTCAR:    PAW_PBE Na_pv 19Sep2006               
 -----------------------------------------------------------------------------
|                                                                             |
|           W    W    AA    RRRRR   N    N  II  N    N   GGGG   !!!           |
|           W    W   A  A   R    R  NN   N  II  NN   N  G    G  !!!           |
|           W    W  A    A  R    R  N N  N  II  N N  N  G       !!!           |
|           W WW W  AAAAAA  RRRRR   N  N N  II  N  N N  G  GGG   !            |
|           WW  WW  A    A  R   R   N   NN  II  N   NN  G    G                |
|           W    W  A    A  R    R  N    N  II  N    N   GGGG   !!!           |
|                                                                             |
|     For optimal performance we recommend to set                             |
|       NCORE = 2 up to number-of-cores-per-socket                            |
|     NCORE specifies how many cores store one orbital (NPAR=cpu/NCORE).      |
|     This setting can greatly improve the performance of VASP for DFT.       |
|     The default, NCORE=1 might be grossly inefficient on modern             |
|     multi-core architectures or massively parallel machines. Do your        |
|     own testing! More info at https://www.vasp.at/wiki/index.php/NCORE      |
|     Unfortunately you need to use the default for GW and RPA                |
|     calculations (for HF NCORE is supported but not extensively tested      |
|     yet).                                                                   |
|                                                                             |
 -----------------------------------------------------------------------------

 POTCAR:    PAW_PBE Fe_pv 02Aug2007               
   VRHFIN =Fe:  3pd7s1                                                                              
   LEXCH  = PE                                                                                      
   EATOM  =  2457.4239 eV,  180.6156 Ry                                                             
                                                                                                    
   TITEL  = PAW_PBE Fe_pv 02Aug2007                                                                 
   LULTRA =        F    use ultrasoft PP ?                                                          
   IUNSCR =        1    unscreen: 0-lin 1-nonlin 2-no                                               
   RPACOR =    1.750    partial core radius                                                         
   POMASS =   55.847; ZVAL   =   14.000    mass and valenz                                          
   RCORE  =    2.200    outmost cutoff radius                                                       
   RWIGS  =    2.200; RWIGS  =    1.164    wigner-seitz radius (au A)                               
   ENMAX  =  293.238; ENMIN  =  219.928 eV                                                          
   ICORE  =        3    local potential                                                             
   LCOR   =        T    correct aug charges                                                         
   LPAW   =        T    paw PP                                                                      
   EAUG   =  578.342                                                                                
   DEXC   =    0.000                                                                                
   RMAX   =    2.249    core radius for proj-oper                                                   
   RAUG   =    1.300    factor for augmentation sphere                                              
   RDEP   =    2.296    radius for radial grids                                                     
   RDEPT  =    1.766    core radius for aug-charge                                                  
                                                                                                    
   Atomic configuration                                                                             
    8 entries                                                                                       
     n  l   j            E        occ.                                                              
     1  0  0.50     -6993.8440   2.0000                                                             
     2  0  0.50      -814.6047   2.0000                                                             
     2  1  1.50      -693.3689   6.0000                                                             
     3  0  0.50       -89.4732   2.0000                                                             
     3  1  1.50       -55.6373   6.0000                                                             
     3  2  2.50        -3.8151   7.0000                                                             
     4  0  0.50        -4.2551   1.0000                                                             
     4  3  2.50        -1.3606   0.0000                                                             
   Description                                                                                      
     l       E           TYP  RCUT    TYP  RCUT                                                     
     1    -55.6372668     23  2.000                                                                 
     1     -5.4423304     23  2.000                                                                 
     2     -3.8151096     23  2.200                                                                 
     2     -5.1756922     23  2.200                                                                 
     0     -4.2550951     23  2.200                                                                 
     0     27.2116520     23  2.200                                                                 
     3     -1.3605826     23  2.200                                                                 
  local pseudopotential read in
  partial core-charges read in
  partial kinetic energy density read in
  atomic valenz-charges read in
  non local Contribution for L=           1  read in
    real space projection operators read in
  non local Contribution for L=           1  read in
    real space projection operators read in
  non local Contribution for L=           2  read in
    real space projection operators read in
  non local Contribution for L=           2  read in
    real space projection operators read in
  non local Contribution for L=           0  read in
    real space projection operators read in
  non local Contribution for L=           0  read in
    real space projection operators read in
    PAW grid and wavefunctions read in

   number of l-projection  operators is LMAX  =           6
   number of lm-projection operators is LMMAX =          18

 POTCAR:    PAW_PBE P 06Sep2000                   
   VRHFIN =P : s2p3                                                                                 
   LEXCH  = PE                                                                                      
   EATOM  =   176.0430 eV,   12.9388 Ry                                                             
                                                                                                    
   TITEL  = PAW_PBE P 06Sep2000                                                                     
   LULTRA =        F    use ultrasoft PP ?                                                          
   IUNSCR =        1    unscreen: 0-lin 1-nonlin 2-no                                               
   RPACOR =    1.500    partial core radius                                                         
   POMASS =   30.974; ZVAL   =    5.000    mass and valenz                                          
   RCORE  =    1.900    outmost cutoff radius                                                       
   RWIGS  =    2.330; RWIGS  =    1.233    wigner-seitz radius (au A)                               
   ENMAX  =  255.040; ENMIN  =  191.280 eV                                                          
   ICORE  =        2    local potential                                                             
   LCOR   =        T    correct aug charges                                                         
   LPAW   =        T    paw PP                                                                      
   EAUG   =  342.924                                                                                
   DEXC   =    0.000                                                                                
   RMAX   =    1.935    core radius for proj-oper                                                   
   RAUG   =    1.300    factor for augmentation sphere                                              
   RDEP   =    1.931    radius for radial grids                                                     
   RDEPT  =    1.794    core radius for aug-charge                                                  
                                                                                                    
   Atomic configuration                                                                             
    6 entries                                                                                       
     n  l   j            E        occ.                                                              
     1  0  0.50     -2084.0982   2.0000                                                             
     2  0  0.50      -173.9859   2.0000                                                             
     2  1  1.50      -124.4865   6.0000                                                             
     3  0  0.50       -13.9692   2.0000                                                             
     3  1  0.50        -5.5067   3.0000                                                             
     3  2  1.50        -5.4423   0.0000                                                             
   Description                                                                                      
     l       E           TYP  RCUT    TYP  RCUT                                                     
     0    -13.9691527     23  1.900                                                                 
     0    -11.7794650     23  1.900                                                                 
     1     -5.5066937     23  1.900                                                                 
     1     -0.2556953     23  1.900                                                                 
     2     -5.4423304     23  1.900                                                                 
  local pseudopotential read in
  partial core-charges read in
  partial kinetic energy density read in
  atomic valenz-charges read in
  non local Contribution for L=           0  read in
    real space projection operators read in
  non local Contribution for L=           0  read in
    real space projection operators read in
  non local Contribution for L=           1  read in
    real space projection operators read in
  non local Contribution for L=           1  read in
    real space projection operators read in
    PAW grid and wavefunctions read in

   number of l-projection  operators is LMAX  =           4
   number of lm-projection operators is LMMAX =           8

 POTCAR:    PAW_PBE O 08Apr2002                   
   VRHFIN =O: s2p4                                                                                  
   LEXCH  = PE                                                                                      
   EATOM  =   432.3788 eV,   31.7789 Ry                                                             
                                                                                                    
   TITEL  = PAW_PBE O 08Apr2002                                                                     
   LULTRA =        F    use ultrasoft PP ?                                                          
   IUNSCR =        1    unscreen: 0-lin 1-nonlin 2-no                                               
   RPACOR =    1.200    partial core radius                                                         
   POMASS =   16.000; ZVAL   =    6.000    mass and valenz                                          
   RCORE  =    1.520    outmost cutoff radius                                                       
   RWIGS  =    1.550; RWIGS  =    0.820    wigner-seitz radius (au A)                               
   ENMAX  =  400.000; ENMIN  =  300.000 eV                                                          
   ICORE  =        2    local potential                                                             
   LCOR   =        T    correct aug charges                                                         
   LPAW   =        T    paw PP                                                                      
   EAUG   =  605.392                                                                                
   DEXC   =    0.000                                                                                
   RMAX   =    1.553    core radius for proj-oper                                                   
   RAUG   =    1.300    factor for augmentation sphere                                              
   RDEP   =    1.550    radius for radial grids                                                     
   RDEPT  =    1.329    core radius for aug-charge                                                  
                                                                                                    
   Atomic configuration                                                                             
    4 entries                                                                                       
     n  l   j            E        occ.                                                              
     1  0  0.50      -514.6923   2.0000                                                             
     2  0  0.50       -23.9615   2.0000                                                             
     2  1  0.50        -9.0305   4.0000                                                             
     3  2  1.50        -9.5241   0.0000                                                             
   Description                                                                                      
     l       E           TYP  RCUT    TYP  RCUT                                                     
     0    -23.9615318     23  1.200                                                                 
     0     -9.5240782     23  1.200                                                                 
     1     -9.0304911     23  1.520                                                                 
     1      8.1634956     23  1.520                                                                 
     2     -9.5240782      7  1.500                                                                 
  local pseudopotential read in
  partial core-charges read in
  partial kinetic energy density read in
  kinetic energy density of atom read in
  atomic valenz-charges read in
  non local Contribution for L=           0  read in
    real space projection operators read in
  non local Contribution for L=           0  read in
    real space projection operators read in
  non local Contribution for L=           1  read in
    real space projection operators read in
  non local Contribution for L=           1  read in
    real space projection operators read in
    PAW grid and wavefunctions read in

   number of l-projection  operators is LMAX  =           4
   number of lm-projection operators is LMMAX =           8

 POTCAR:    PAW_PBE Na_pv 19Sep2006               
   VRHFIN =Na: p6s1                                                                                 
   LEXCH  = PE                                                                                      
   EATOM  =   766.0439 eV,   56.3026 Ry                                                             
                                                                                                    
   TITEL  = PAW_PBE Na_pv 19Sep2006                                                                 
   LULTRA =        F    use ultrasoft PP ?                                                          
   IUNSCR =        1    unscreen: 0-lin 1-nonlin 2-no                                               
   RPACOR =    1.800    partial core radius                                                         
   POMASS =   22.990; ZVAL   =    7.000    mass and valenz                                          
   RCORE  =    2.200    outmost cutoff radius                                                       
   RWIGS  =    2.200; RWIGS  =    1.164    wigner-seitz radius (au A)                               
   ENMAX  =  259.561; ENMIN  =  194.671 eV                                                          
   ICORE  =        2    local potential                                                             
   LCOR   =        T    correct aug charges                                                         
   LPAW   =        T    paw PP                                                                      
   EAUG   =  368.056                                                                                
   DEXC   =    0.000                                                                                
   RMAX   =    2.245    core radius for proj-oper                                                   
   RAUG   =    1.300    factor for augmentation sphere                                              
   RDEP   =    2.259    radius for radial grids                                                     
   RDEPT  =    1.738    core radius for aug-charge                                                  
                                                                                                    
   Atomic configuration                                                                             
    5 entries                                                                                       
     n  l   j            E        occ.                                                              
     1  0  0.50     -1033.6933   2.0000                                                             
     2  0  0.50       -56.7526   2.0000                                                             
     2  1  1.50       -28.6721   6.0000                                                             
     3  0  0.50        -2.7440   1.0000                                                             
     3  2  1.50        -1.3606   0.0000                                                             
   Description                                                                                      
     l       E           TYP  RCUT    TYP  RCUT                                                     
     1    -28.6720912     23  2.000                                                                 
     1      6.8029130     23  2.000                                                                 
     0     -2.7439560     23  2.200                                                                 
     0     34.0145650     23  2.200                                                                 
     2     -1.3605826     23  2.200                                                                 
  local pseudopotential read in
  partial core-charges read in
  partial kinetic energy density read in
  atomic valenz-charges read in
  non local Contribution for L=           1  read in
    real space projection operators read in
  non local Contribution for L=           1  read in
    real space projection operators read in
  non local Contribution for L=           0  read in
    real space projection operators read in
  non local Contribution for L=           0  read in
    real space projection operators read in
    PAW grid and wavefunctions read in

   number of l-projection  operators is LMAX  =           4
   number of lm-projection operators is LMMAX =           8

 Optimization of the real space projectors (new method)

 maximal supplied QI-value         = 17.01
 optimisation between [QCUT,QGAM] = [ 11.57, 23.30] = [ 37.45,152.03] Ry 
 Optimized for a Real-space Cutoff    1.45 Angstroem

   l    n(q)    QCUT    max X(q) W(low)/X(q) W(high)/X(q)  e(spline) 
   1     10    11.565     4.267    0.91E-04    0.15E-03    0.13E-06
   1     10    11.565     5.750    0.14E-03    0.22E-03    0.20E-06
   2      9    11.565    53.656    0.13E-03    0.57E-04    0.16E-06
   2      9    11.565    49.521    0.13E-03    0.59E-04    0.16E-06
   0     10    11.565    31.246    0.61E-04    0.74E-05    0.89E-07
   0     10    11.565    12.201    0.44E-04    0.68E-05    0.74E-07
 Optimization of the real space projectors (new method)

 maximal supplied QI-value         = 19.84
 optimisation between [QCUT,QGAM] = [ 11.51, 23.22] = [ 37.09,150.92] Ry 
 Optimized for a Real-space Cutoff    1.21 Angstroem

   l    n(q)    QCUT    max X(q) W(low)/X(q) W(high)/X(q)  e(spline) 
   0      8    11.508   160.924    0.96E-04    0.17E-03    0.52E-07
   0      8    11.508   130.086    0.95E-04    0.17E-03    0.51E-07
   1      8    11.508    74.434    0.16E-03    0.74E-04    0.91E-07
   1      8    11.508    49.120    0.16E-03    0.71E-04    0.89E-07
 Optimization of the real space projectors (new method)

 maximal supplied QI-value         = 24.76
 optimisation between [QCUT,QGAM] = [ 11.64, 23.27] = [ 37.91,151.63] Ry 
 Optimized for a Real-space Cutoff    1.14 Angstroem

   l    n(q)    QCUT    max X(q) W(low)/X(q) W(high)/X(q)  e(spline) 
   0      8    11.635    20.381    0.10E-03    0.33E-03    0.24E-06
   0      8    11.635    15.268    0.11E-03    0.35E-03    0.26E-06
   1      7    11.635     5.964    0.24E-03    0.31E-03    0.30E-06
   1      7    11.635     5.382    0.22E-03    0.25E-03    0.26E-06
 Optimization of the real space projectors (new method)

 maximal supplied QI-value         = 17.01
 optimisation between [QCUT,QGAM] = [ 11.57, 23.30] = [ 37.45,152.03] Ry 
 Optimized for a Real-space Cutoff    1.45 Angstroem

   l    n(q)    QCUT    max X(q) W(low)/X(q) W(high)/X(q)  e(spline) 
   1     10    11.565     4.940    0.87E-04    0.13E-03    0.13E-06
   1     10    11.565     6.253    0.13E-03    0.19E-03    0.20E-06
   0     10    11.565    37.438    0.53E-04    0.73E-05    0.79E-07
   0     10    11.565     9.606    0.27E-04    0.60E-05    0.56E-07
  PAW_PBE Fe_pv 02Aug2007               :
 energy of atom  1       EATOM=-2457.4239
 kinetic energy error for atom=    0.0062 (will be added to EATOM!!)
  PAW_PBE P 06Sep2000                   :
 energy of atom  2       EATOM= -176.0430
 kinetic energy error for atom=    0.0011 (will be added to EATOM!!)
  PAW_PBE O 08Apr2002                   :
 energy of atom  3       EATOM= -432.3788
 kinetic energy error for atom=    0.0208 (will be added to EATOM!!)
  PAW_PBE Na_pv 19Sep2006               :
 energy of atom  4       EATOM= -766.0439
 kinetic energy error for atom=    0.0019 (will be added to EATOM!!)


 POSCAR: Fe P  O  Na
  positions in cartesian coordinates
  No initial velocities read in
 exchange correlation table for  LEXCH =        8
   RHO(1)=    0.500       N(1)  =     2000
   RHO(2)=  100.500       N(2)  =     4000



--------------------------------------------------------------------------------------------------------


 ion  position               nearest neighbor table
   1  0.782  0.247  0.255-  49 1.94  53 1.96  62 2.14  63 2.17  92 2.21  57 2.22  25 2.86
   2  0.279  0.250  0.492-  50 1.93  70 1.98  80 2.07  93 2.17  59 2.18  74 2.35  30 2.87
   3  0.220  0.083  0.244-  51 1.93  55 1.98  58 2.17 128 2.18  59 2.20  61 2.23
   4  0.718  0.082  0.007-  52 1.94  72 1.96 121 2.15  63 2.18  76 2.20  78 2.21  32 2.88
   5  0.781  0.246  0.758-  65 1.94  69 1.96  78 2.13  79 2.15 108 2.19  73 2.34
   6  0.283  0.251  0.993-  66 1.94  54 1.98 109 2.09  75 2.19  64 2.21  58 2.24
   7  0.218  0.082  0.744-  67 1.95  71 1.99  74 2.07 144 2.16  77 2.22  75 2.23
   8  0.719  0.082  0.506-  68 1.93  56 1.96 137 2.15  60 2.20  62 2.23  79 2.23
   9  0.782  0.586  0.255-  81 1.94  85 1.96 124 2.14  89 2.17  94 2.21  95 2.22  33 2.86
  10  0.279  0.583  0.492-  82 1.93 102 1.98 106 2.07  91 2.17 125 2.18 112 2.35  38 2.87
  11  0.220  0.417  0.245-  83 1.92  87 1.95  91 2.19  93 2.19  90 2.19  64 2.19  35 2.84
  12  0.721  0.417  0.011-  84 1.92 104 1.98  95 2.17  57 2.17 108 2.21 110 2.21  40 2.88
  13  0.781  0.587  0.758-  97 1.94 101 1.96 140 2.13 105 2.15 110 2.19 111 2.34
  14  0.283  0.582  0.993-  98 1.94  86 1.98 107 2.09 141 2.19  90 2.21  96 2.24
  15  0.209  0.417  0.737- 103 2.00  99 2.05 106 2.30  80 2.31
  16  0.724  0.417  0.489- 100 1.92  88 1.98  92 2.11  94 2.11 111 2.23  73 2.23  36 2.77
  17  0.781  0.917  0.257- 113 1.94 117 1.97  60 2.17 126 2.17 121 2.21 127 2.21
  18  0.281  0.917  0.494- 114 1.93 134 1.97  61 2.16 123 2.16 138 2.22 144 2.22
  19  0.220  0.750  0.244- 115 1.93 119 1.98  96 2.17 122 2.18 125 2.20 123 2.23
  20  0.718  0.752  0.008- 116 1.94 136 1.96 127 2.15  89 2.18 142 2.20 140 2.21  48 2.88
  21  0.780  0.917  0.757- 129 1.94 133 1.97  76 2.15 142 2.15 137 2.22 143 2.22
  22  0.280  0.917  0.995- 130 1.94 118 1.97  77 2.16 139 2.16 128 2.21 122 2.21  42 2.88
  23  0.218  0.751  0.745- 131 1.95 135 1.99 112 2.07 138 2.16 139 2.22 141 2.23
  24  0.719  0.751  0.506- 132 1.93 120 1.96 143 2.15 126 2.20 124 2.22 105 2.23
  25  0.608  0.249  0.032-  54 1.53  65 1.54  63 1.59  57 1.59   1 2.86
  26  0.107  0.249  0.218-  50 1.54  53 1.54  58 1.58  64 1.58
  27  0.393  0.083  0.472-  67 1.53  56 1.55  61 1.58  59 1.59
  28  0.893  0.083  0.280-  52 1.54  55 1.54  60 1.59  62 1.59
  29  0.606  0.251  0.529-  49 1.54  70 1.54  73 1.58  79 1.59
  30  0.107  0.245  0.718-  66 1.54  69 1.55  80 1.58  74 1.58   2 2.87
  31  0.393  0.083  0.971-  51 1.54  72 1.54  75 1.58  77 1.58
  32  0.892  0.082  0.781-  71 1.53  68 1.54  76 1.58  78 1.59   4 2.88
  33  0.608  0.584  0.031-  86 1.53  97 1.54  89 1.59  95 1.59   9 2.86
  34  0.107  0.584  0.218-  82 1.54  85 1.54  96 1.58  90 1.58
  35  0.393  0.417  0.467-  99 1.53  88 1.55  93 1.58  91 1.58  11 2.84
  36  0.897  0.417  0.277-  87 1.53  84 1.53  92 1.59  94 1.59  16 2.77
  37  0.606  0.582  0.529-  81 1.54 102 1.54 111 1.58 105 1.59
  38  0.107  0.588  0.718-  98 1.54 101 1.55 106 1.58 112 1.58  10 2.87
  39  0.392  0.417  0.978-  83 1.53 109 1.57 107 1.57 104 1.57
  40  0.885  0.417  0.777- 103 1.51 100 1.54 108 1.59 110 1.59  12 2.88
  41  0.606  0.917  0.031- 129 1.54 118 1.54 127 1.59 121 1.59
  42  0.107  0.917  0.221- 114 1.54 117 1.54 128 1.58 122 1.58  22 2.88
  43  0.393  0.751  0.472- 131 1.53 120 1.55 123 1.58 125 1.59
  44  0.893  0.751  0.280- 116 1.54 119 1.54 126 1.59 124 1.59
  45  0.607  0.917  0.530- 113 1.54 134 1.54 143 1.58 137 1.58
  46  0.106  0.917  0.721- 130 1.54 133 1.54 144 1.58 138 1.58
  47  0.393  0.750  0.971- 115 1.54 136 1.54 141 1.58 139 1.58
  48  0.892  0.751  0.781- 135 1.53 132 1.54 142 1.58 140 1.59  20 2.88
  49  0.637  0.251  0.378-  29 1.54   1 1.94
  50  0.133  0.249  0.371-  26 1.54   2 1.93
  51  0.366  0.083  0.124-  31 1.54   3 1.93
  52  0.865  0.082  0.128-  28 1.54   4 1.94
  53  0.961  0.249  0.192-  26 1.54   1 1.96
  54  0.463  0.248  0.060-  25 1.53   6 1.98
  55  0.039  0.083  0.306-  28 1.54   3 1.98
  56  0.539  0.084  0.446-  27 1.55   8 1.96
  57  0.680  0.314  0.103-  25 1.59  12 2.17   1 2.22
  58  0.178  0.185  0.146-  26 1.58   3 2.17   6 2.24
  59  0.321  0.147  0.399-  27 1.59   2 2.18   3 2.20
  60  0.822  0.018  0.354-  28 1.59  17 2.17   8 2.20
  61  0.323  0.018  0.398-  27 1.58  18 2.16   3 2.23
  62  0.822  0.147  0.352-  28 1.59   1 2.14   8 2.23
  63  0.681  0.185  0.103-  25 1.59   1 2.17   4 2.18
  64  0.178  0.314  0.147-  26 1.58  11 2.19   6 2.21
  65  0.633  0.249  0.878-  25 1.54   5 1.94
  66  0.138  0.250  0.870-  30 1.54   6 1.94
  67  0.366  0.082  0.624-  27 1.53   7 1.95
  68  0.864  0.083  0.629-  32 1.54   8 1.93
  69  0.960  0.248  0.698-  30 1.55   5 1.96
  70  0.460  0.249  0.553-  29 1.54   2 1.98
  71  0.037  0.080  0.809-  32 1.53   7 1.99
  72  0.539  0.083  0.946-  31 1.54   4 1.96
  73  0.670  0.318  0.602-  29 1.58  16 2.23   5 2.34
  74  0.172  0.178  0.650-  30 1.58   7 2.07   2 2.35
  75  0.323  0.147  0.898-  31 1.58   6 2.19   7 2.23
  76  0.819  0.018  0.853-  32 1.58  21 2.15   4 2.20
  77  0.322  0.018  0.899-  31 1.58  22 2.16   7 2.22
  78  0.821  0.147  0.854-  32 1.59   5 2.13   4 2.21
  79  0.680  0.188  0.604-  29 1.59   5 2.15   8 2.23
  80  0.178  0.306  0.637-  30 1.58   2 2.07  15 2.31
  81  0.637  0.583  0.377-  37 1.54   9 1.94
  82  0.133  0.585  0.371-  34 1.54  10 1.93
  83  0.369  0.417  0.131-  39 1.53  11 1.92
  84  0.871  0.417  0.124-  36 1.53  12 1.92
  85  0.961  0.584  0.192-  34 1.54   9 1.96
  86  0.463  0.585  0.060-  33 1.53  14 1.98
  87  0.041  0.417  0.306-  36 1.53  11 1.95
  88  0.540  0.417  0.438-  35 1.55  16 1.98
  89  0.681  0.648  0.103-  33 1.59   9 2.17  20 2.18
  90  0.178  0.519  0.147-  34 1.58  11 2.19  14 2.21
  91  0.321  0.481  0.396-  35 1.58  10 2.17  11 2.19
  92  0.824  0.352  0.348-  36 1.59  16 2.11   1 2.21
  93  0.321  0.352  0.396-  35 1.58   2 2.17  11 2.19
  94  0.824  0.481  0.348-  36 1.59  16 2.11   9 2.21
  95  0.680  0.519  0.103-  33 1.59  12 2.17   9 2.22
  96  0.178  0.649  0.146-  34 1.58  19 2.17  14 2.24
  97  0.633  0.584  0.878-  33 1.54  13 1.94
  98  0.138  0.583  0.870-  38 1.54  14 1.94
  99  0.371  0.417  0.620-  35 1.53  15 2.05 145 2.23
 100  0.857  0.417  0.624-  40 1.54  16 1.92
 101  0.960  0.586  0.698-  38 1.55  13 1.96
 102  0.460  0.584  0.553-  37 1.54  10 1.98
 103  0.028  0.417  0.805-  40 1.51  15 2.00
 104  0.540  0.417  0.950-  39 1.57  12 1.98 145 2.23
 105  0.680  0.645  0.604-  37 1.59  13 2.15  24 2.23
 106  0.178  0.527  0.637-  38 1.58  10 2.07  15 2.30
 107  0.328  0.483  0.907-  39 1.57  14 2.09
 108  0.810  0.353  0.848-  40 1.59   5 2.19  12 2.21
 109  0.328  0.350  0.907-  39 1.57   6 2.09
 110  0.810  0.481  0.848-  40 1.59  13 2.19  12 2.21
 111  0.670  0.516  0.602-  37 1.58  16 2.23  13 2.34
 112  0.172  0.655  0.650-  38 1.58  23 2.07  10 2.35
 113  0.635  0.917  0.377-  45 1.54  17 1.94
 114  0.134  0.917  0.374-  42 1.54  18 1.93
 115  0.366  0.750  0.124-  47 1.54  19 1.93
 116  0.865  0.751  0.128-  44 1.54  20 1.94
 117  0.961  0.917  0.196-  42 1.54  17 1.97
 118  0.460  0.917  0.058-  41 1.54  22 1.97
 119  0.039  0.750  0.306-  44 1.54  19 1.98
 120  0.539  0.749  0.446-  43 1.55  24 1.96
 121  0.678  0.981  0.104-  41 1.59   4 2.15  17 2.21
 122  0.178  0.852  0.148-  42 1.58  19 2.18  22 2.21
 123  0.323  0.815  0.398-  43 1.58  18 2.16  19 2.23
 124  0.822  0.686  0.352-  44 1.59   9 2.14  24 2.22
 125  0.321  0.687  0.399-  43 1.59  10 2.18  19 2.20
 126  0.822  0.815  0.354-  44 1.59  17 2.17  24 2.20
 127  0.678  0.852  0.104-  41 1.59  20 2.15  17 2.21
 128  0.178  0.981  0.148-  42 1.58   3 2.18  22 2.21
 129  0.633  0.917  0.878-  41 1.54  21 1.94
 130  0.134  0.917  0.873-  46 1.54  22 1.94
 131  0.366  0.751  0.624-  43 1.53  23 1.95
 132  0.864  0.750  0.629-  48 1.54  24 1.93
 133  0.960  0.917  0.696-  46 1.54  21 1.97
 134  0.461  0.917  0.556-  45 1.54  18 1.97
 135  0.037  0.753  0.809-  48 1.53  23 1.99
 136  0.539  0.751  0.946-  47 1.54  20 1.96
 137  0.678  0.981  0.603-  45 1.58   8 2.15  21 2.22
 138  0.177  0.852  0.648-  46 1.58  23 2.16  18 2.22
 139  0.322  0.815  0.899-  47 1.58  22 2.16  23 2.22
 140  0.821  0.687  0.854-  48 1.59  13 2.13  20 2.21
 141  0.323  0.686  0.898-  47 1.58  14 2.19  23 2.23
 142  0.819  0.816  0.853-  48 1.58  21 2.15  20 2.20
 143  0.678  0.852  0.603-  45 1.58  24 2.15  21 2.22
 144  0.177  0.981  0.648-  46 1.58   7 2.16  18 2.22
 145  0.560  0.417  0.726-  99 2.23 104 2.23


IMPORTANT INFORMATION: All symmetrisations will be switched off!
NOSYMM: (Re-)initialisation of all symmetry stuff for point group C_1.


----------------------------------------------------------------------------------------

                                     Primitive cell                                     

  volume of cell :    1920.7920

  direct lattice vectors                    reciprocal lattice vectors
    10.406300000  0.000000000  0.000000000     0.096095634  0.000000000  0.000000000
     0.000000000 18.656100000  0.000000000     0.000000000  0.053601771  0.000000000
     0.000000000  0.000000000  9.893800000     0.000000000  0.000000000  0.101073400

  length of vectors
    10.406300000 18.656100000  9.893800000     0.096095634  0.053601771  0.101073400

  position of ions in fractional coordinates (direct lattice)
     0.782056440  0.247148391  0.254870419
     0.278724756  0.250045060  0.491893725
     0.219674939  0.083463570  0.244331232
     0.718088499  0.081745790  0.007476535
     0.780789318  0.246449625  0.758124827
     0.283012258  0.251214271  0.993143732
     0.217994761  0.082069588  0.744459340
     0.718964365  0.082127968  0.506411881
     0.782020896  0.586145042  0.254845378
     0.278709565  0.583284122  0.491900541
     0.219777195  0.416703307  0.245150429
     0.721119202  0.416682362  0.010885058
     0.780776050  0.586891408  0.758089612
     0.282934144  0.582089780  0.993099636
     0.208918348  0.416734121  0.737245081
     0.723933896  0.416679631  0.488956426
     0.781044315  0.916667180  0.256816682
     0.280690888  0.916658776  0.494068730
     0.219714706  0.749857974  0.244358184
     0.718091563  0.751566403  0.007510364
     0.779530429  0.916680167  0.757475164
     0.280356380  0.916673743  0.994616553
     0.217983889  0.751259313  0.744502817
     0.718997594  0.751167704  0.506430375
     0.607664807  0.249194981  0.031530303
     0.107220537  0.249099304  0.218187999
     0.392736089  0.082663379  0.471709243
     0.893313290  0.082596672  0.279955040
     0.606033581  0.251026117  0.529349645
     0.106914106  0.245479715  0.718487642
     0.392545861  0.083009279  0.971144584
     0.891723378  0.081890410  0.781301273
     0.607637582  0.584153904  0.031480368
     0.107184477  0.584278337  0.218206004
     0.393403122  0.416693094  0.466808427
     0.896793131  0.416686056  0.276552048
     0.606025796  0.582282129  0.529285185
     0.106857203  0.587854212  0.718498626
     0.391636908  0.416658459  0.978169562
     0.884904512  0.416682785  0.776737289
     0.605891841  0.916650148  0.030875762
     0.107122247  0.916652939  0.221007863
     0.392765412  0.750630367  0.471786885
     0.893327813  0.750695712  0.280040263
     0.606622536  0.916652177  0.529843955
     0.106178369  0.916684858  0.721040203
     0.392535736  0.750283399  0.971146462
     0.891747714  0.751471368  0.781354121
     0.637129046  0.250677304  0.377553812
     0.133303571  0.248793075  0.370925696
     0.365570981  0.082815542  0.123952730
     0.865098461  0.082128786  0.127573521
     0.960973753  0.249202493  0.192257713
     0.462683009  0.247787909  0.059888008
     0.039009959  0.082813206  0.305535813
     0.539187959  0.083847340  0.446032612
     0.679507513  0.313894935  0.103074667
     0.178307501  0.184711196  0.146246444
     0.320810640  0.146750448  0.398608641
     0.821995376  0.018469753  0.353695822
     0.323099456  0.017958737  0.398242399
     0.822206763  0.147266887  0.352341409
     0.680704024  0.184989850  0.103224812
     0.177755235  0.314032301  0.146763548
     0.633043071  0.249143800  0.878212489
     0.137831634  0.249928553  0.870193920
     0.366183656  0.081932235  0.624234790
     0.863892928  0.082970298  0.628605344
     0.959673184  0.247726539  0.697656310
     0.459997631  0.248882804  0.553052132
     0.036701859  0.080394252  0.808996761
     0.538894068  0.082726552  0.946225167
     0.669852501  0.317734913  0.602279156
     0.171937543  0.178016648  0.650388660
     0.322735047  0.147425701  0.898147374
     0.818609764  0.017822307  0.853101562
     0.321829558  0.018268060  0.898955183
     0.820721940  0.146554301  0.854151648
     0.679957336  0.187920541  0.603608486
     0.177724076  0.306450190  0.637316646
     0.637069616  0.582657424  0.377473745
     0.133275665  0.584578667  0.370941598
     0.368795499  0.416690765  0.131306314
     0.871141041  0.416656750  0.123808081
     0.960949687  0.584203322  0.192255397
     0.462646759  0.585466802  0.059739086
     0.041206474  0.416701715  0.306287115
     0.539709576  0.416687957  0.437810767
     0.680586771  0.648360478  0.103265666
     0.177654108  0.519318211  0.146766432
     0.321238261  0.481225745  0.395787813
     0.824274446  0.352349324  0.348361349
     0.321258534  0.352155608  0.395801091
     0.824258014  0.481048394  0.348281902
     0.679563564  0.519469913  0.102996429
     0.178333611  0.648642868  0.146275758
     0.633037497  0.584241295  0.878176471
     0.137671436  0.583395724  0.870239163
     0.371461618  0.416712887  0.619930419
     0.857391562  0.416660460  0.623596920
     0.959630632  0.585614584  0.697585153
     0.460008837  0.584410932  0.553045612
     0.027786753  0.416708217  0.804955718
     0.539827246  0.416690697  0.950373170
     0.679958843  0.645363482  0.603599471
     0.177684718  0.526871428  0.637366020
     0.328284798  0.482851483  0.907188315
     0.810393889  0.352560656  0.848394787
     0.328361940  0.350433047  0.907264867
     0.810335635  0.480811708  0.848330004
     0.669862545  0.515562931  0.602172233
     0.171944976  0.655303986  0.650423608
     0.634542178  0.916649967  0.377314330
     0.134266309  0.916643223  0.373689540
     0.365695302  0.750481318  0.123986918
     0.865167301  0.751134984  0.127648244
     0.960898760  0.916673939  0.195611252
     0.460362142  0.916659850  0.057647000
     0.039023321  0.750439773  0.305666390
     0.539207689  0.749450555  0.446042013
     0.677593954  0.980973326  0.103599661
     0.177819746  0.852168450  0.148294815
     0.323081782  0.815321807  0.398299118
     0.822107544  0.686064824  0.352470970
     0.320836362  0.686539649  0.398700062
     0.822011374  0.814853824  0.353694500
     0.677576660  0.852306456  0.103550801
     0.177829296  0.981127080  0.148283235
     0.632693304  0.916668258  0.878182886
     0.134254636  0.916678993  0.873499007
     0.366260765  0.751388366  0.624324285
     0.863930349  0.750381358  0.628660140
     0.959999924  0.916697697  0.696032510
     0.460992354  0.916650723  0.555914901
     0.036724274  0.752972013  0.809103493
     0.538877188  0.750549095  0.946101628
     0.677657650  0.981116292  0.602593419
     0.176976590  0.852286437  0.647922279
     0.321750128  0.815023306  0.899005015
     0.820730254  0.686796076  0.854132410
     0.322582233  0.685889088  0.898178321
     0.818669462  0.815546448  0.853140973
     0.677692446  0.852204450  0.602604606
     0.176966601  0.981080909  0.647906235
     0.560000480  0.416782233  0.726192808

  ion indices of the primitive-cell ions
   primitive index   ion index
                 1           1
                 2           2
                 3           3
                 4           4
                 5           5
                 6           6
                 7           7
                 8           8
                 9           9
                10          10
                11          11
                12          12
                13          13
                14          14
                15          15
                16          16
                17          17
                18          18
                19          19
                20          20
                21          21
                22          22
                23          23
                24          24
                25          25
                26          26
                27          27
                28          28
                29          29
                30          30
                31          31
                32          32
                33          33
                34          34
                35          35
                36          36
                37          37
                38          38
                39          39
                40          40
                41          41
                42          42
                43          43
                44          44
                45          45
                46          46
                47          47
                48          48
                49          49
                50          50
                51          51
                52          52
                53          53
                54          54
                55          55
                56          56
                57          57
                58          58
                59          59
                60          60
                61          61
                62          62
                63          63
                64          64
                65          65
                66          66
                67          67
                68          68
                69          69
                70          70
                71          71
                72          72
                73          73
                74          74
                75          75
                76          76
                77          77
                78          78
                79          79
                80          80
                81          81
                82          82
                83          83
                84          84
                85          85
                86          86
                87          87
                88          88
                89          89
                90          90
                91          91
                92          92
                93          93
                94          94
                95          95
                96          96
                97          97
                98          98
                99          99
               100         100
               101         101
               102         102
               103         103
               104         104
               105         105
               106         106
               107         107
               108         108
               109         109
               110         110
               111         111
               112         112
               113         113
               114         114
               115         115
               116         116
               117         117
               118         118
               119         119
               120         120
               121         121
               122         122
               123         123
               124         124
               125         125
               126         126
               127         127
               128         128
               129         129
               130         130
               131         131
               132         132
               133         133
               134         134
               135         135
               136         136
               137         137
               138         138
               139         139
               140         140
               141         141
               142         142
               143         143
               144         144
               145         145

----------------------------------------------------------------------------------------



 KPOINTS: KPOINTS created by Atomic Simulation Env

Automatic generation of k-mesh.
 Grid dimensions read from file:
 generate k-points for:    3    1    3

 Generating k-lattice:

  Cartesian coordinates                     Fractional coordinates (reciprocal lattice)
     0.032031878  0.000000000  0.000000000     0.333333333  0.000000000  0.000000000
     0.000000000  0.053601771  0.000000000     0.000000000  1.000000000  0.000000000
     0.000000000  0.000000000  0.033691133     0.000000000  0.000000000  0.333333333

  Length of vectors
     0.032031878  0.053601771  0.033691133

  Shift w.r.t. Gamma in fractional coordinates (k-lattice)
     0.000000000  0.000000000  0.000000000

 
 Subroutine IBZKPT returns following result:
 ===========================================
 
 Found      5 irreducible k-points:
 
 Following reciprocal coordinates:
            Coordinates               Weight
  0.000000  0.000000  0.000000      1.000000
  0.333333  0.000000  0.000000      2.000000
  0.000000  0.000000  0.333333      2.000000
  0.333333  0.000000  0.333333      2.000000
 -0.333333  0.000000  0.333333      2.000000
 
 Following cartesian coordinates:
            Coordinates               Weight
  0.000000  0.000000  0.000000      1.000000
  0.032032  0.000000  0.000000      2.000000
  0.000000  0.000000  0.033691      2.000000
  0.032032  0.000000  0.033691      2.000000
 -0.032032  0.000000  0.033691      2.000000
 


--------------------------------------------------------------------------------------------------------




 Dimension of arrays:
   k-points           NKPTS =      5   k-points in BZ     NKDIM =      5   number of bands    NBANDS=    696
   number of dos      NEDOS =    301   number of ions     NIONS =    145
   non local maximal  LDIM  =      6   non local SUM 2l+1 LMDIM =     18
   total plane-waves  NPLWV = 896000
   max r-space proj   IRMAX =   5954   max aug-charges    IRDMAX=  14393
   dimension x,y,z NGX =    80 NGY =  140 NGZ =   80
   dimension x,y,z NGXF=   160 NGYF=  280 NGZF=  160
   support grid    NGXF=   160 NGYF=  280 NGZF=  160
   ions per type =              24  24  96   1
   NGX,Y,Z   is equivalent  to a cutoff of  12.78, 12.48, 13.44 a.u.
   NGXF,Y,Z  is equivalent  to a cutoff of  25.56, 24.95, 26.88 a.u.

 SYSTEM =  unknown system                          
 POSCAR =  Fe P  O  Na                             

 Startparameter for this run:
   NWRITE =      2    write-flag & timer
   PREC   = accura    normal or accurate (medium, high low for compatibility)
   ISTART =      1    job   : 0-new  1-cont  2-samecut
   ICHARG =      0    charge: 1-file 2-atom 10-const
   ISPIN  =      2    spin polarized calculation?
   LNONCOLLINEAR =      F non collinear calculations
   LSORBIT =      F    spin-orbit coupling
   INIWAV =      1    electr: 0-lowe 1-rand  2-diag
   LASPH  =      T    aspherical Exc in radial PAW
 Electronic Relaxation 1
   ENCUT  =  520.0 eV  38.22 Ry    6.18 a.u.  19.35 34.69 18.40*2*pi/ulx,y,z
   ENINI  =  520.0     initial cutoff
   ENAUG  =  605.4 eV  augmentation charge cutoff
   NELM   =    300;   NELMIN=  8; NELMDL=  0     # of ELM steps 
   EDIFF  = 0.1E-05   stopping-criterion for ELM
   LREAL  =      T    real-space projection
   NLSPLINE    = F    spline interpolate recip. space projectors
   LCOMPAT=      F    compatible to vasp.4.4
   GGA_COMPAT  = T    GGA compatible to vasp.4.4-vasp.4.6
   LMAXPAW     = -100 max onsite density
   LMAXMIX     =    4 max onsite mixed and CHGCAR
   VOSKOWN=      0    Vosko Wilk Nusair interpolation
   ROPT   =   -0.00025  -0.00025  -0.00025  -0.00025
 Ionic relaxation
   EDIFFG = -.2E-01   stopping-criterion for IOM
   NSW    =      1    number of steps for IOM
   NBLOCK =      1;   KBLOCK =      1    inner block; outer block 
   IBRION =      2    ionic relax: 0-MD 1-quasi-New 2-CG
   NFREE  =      1    steps in history (QN), initial steepest desc. (CG)
   ISIF   =      2    stress and relaxation
   IWAVPR =     11    prediction:  0-non 1-charg 2-wave 3-comb
   ISYM   =      0    0-nonsym 1-usesym 2-fastsym
   LCORR  =      T    Harris-Foulkes like correction to forces

   POTIM  = 0.5000    time-step for ionic-motion
   TEIN   =    0.0    initial temperature
   TEBEG  =    0.0;   TEEND  =   0.0 temperature during run
   SMASS  =  -3.00    Nose mass-parameter (am)
   estimated Nose-frequenzy (Omega)   =  0.10E-29 period in steps = 0.13E+47 mass=  -0.247E-26a.u.
   SCALEE = 1.0000    scale energy and forces
   NPACO  =    256;   APACO  = 10.0  distance and # of slots for P.C.
   PSTRESS=    0.0 pullay stress

  Mass of Ions in am
   POMASS =  55.85 30.97 16.00 22.99
  Ionic Valenz
   ZVAL   =  14.00  5.00  6.00  7.00
  Atomic Wigner-Seitz radii
   RWIGS  =  -1.00 -1.00 -1.00 -1.00
  virtual crystal weights 
   VCA    =   1.00  1.00  1.00  1.00
   NELECT =    1039.0000    total number of electrons
   NUPDOWN=     119.0000    fix difference up-down

 DOS related values:
   EMIN   =  10.00;   EMAX   =-10.00  energy-range for DOS
   EFERMI =   0.00;   METHOD = LEGACY      
   ISMEAR =     0;   SIGMA  =   0.05  broadening in eV -4-tet -1-fermi 0-gaus

 Electronic relaxation 2 (details)
   IALGO  =     58    algorithm
   LDIAG  =      T    sub-space diagonalisation (order eigenvalues)
   LSUBROT=      F    optimize rotation matrix (better conditioning)
   TURBO    =      0    0=normal 1=particle mesh
   IRESTART =      0    0=no restart 2=restart with 2 vectors
   NREBOOT  =      0    no. of reboots
   NMIN     =      0    reboot dimension
   EREF     =   0.00    reference energy to select bands
   IMIX   =      4    mixing-type and parameters
     AMIX     =   0.40;   BMIX     =  1.00
     AMIX_MAG =   1.60;   BMIX_MAG =  1.00
     AMIN     =   0.10
     WC   =   100.;   INIMIX=   1;  MIXPRE=   1;  MAXMIX= -45

 Intra band minimization:
   WEIMIN = 0.0010     energy-eigenvalue tresh-hold
   EBREAK =  0.36E-09  absolut break condition
   DEPER  =   0.30     relativ break condition  

   TIME   =   0.05     timestep for ELM

  volume/ion in A,a.u.               =      13.25        89.39
  Fermi-wavevector in a.u.,A,eV,Ry     =   1.333890  2.520686 24.208324  1.779262
  Thomas-Fermi vector in A             =   2.462713

 Write flags
   LWAVE        =      T    write WAVECAR
   LDOWNSAMPLE  =      F    k-point downsampling of WAVECAR
   LCHARG       =      T    write CHGCAR
   LVTOT        =      F    write LOCPOT, total local potential
   LVHAR        =      F    write LOCPOT, Hartree potential only
   LELF         =      F    write electronic localiz. function (ELF)
   LORBIT       =     12    0 simple, 1 ext, 2 COOP (PROOUT), +10 PAW based schemes


 Dipole corrections
   LMONO  =      F    monopole corrections only (constant potential shift)
   LDIPOL =      F    correct potential (dipole corrections)
   IDIPOL =      0    1-x, 2-y, 3-z, 4-all directions 
   EPSILON=  1.0000000 bulk dielectric constant

 LDA+U is selected, type is set to LDAUTYPE =  2
   angular momentum for each species LDAUL =     2   -1   -1   -1
   U (eV)           for each species LDAUU =   5.3  0.0  0.0  0.0
   J (eV)           for each species LDAUJ =   0.0  0.0  0.0  0.0
 Exchange correlation treatment:
   GGA     =    PE    GGA type
   LEXCH   =     8    internal setting for exchange type
   LIBXC   =     F    Libxc                    
   VOSKOWN =     0    Vosko Wilk Nusair interpolation
   LHFCALC =     F    Hartree Fock is set to
   LHFONE  =     F    Hartree Fock one center treatment
   AEXX    =    0.0000 exact exchange contribution

 Linear response parameters
   LEPSILON=     F    determine dielectric tensor
   LRPA    =     F    only Hartree local field effects (RPA)
   LNABLA  =     F    use nabla operator in PAW spheres
   LVEL    =     F    velocity operator in full k-point grid
   CSHIFT  =0.1000    complex shift for real part using Kramers Kronig
   OMEGAMAX=  -1.0    maximum frequency
   DEG_THRESHOLD= 0.2000000E-02 threshold for treating states as degnerate
   RTIME   =   -0.100 relaxation time in fs
  (WPLASMAI=    0.000 imaginary part of plasma frequency in eV, 0.658/RTIME)
   DFIELD  = 0.0000000 0.0000000 0.0000000 field for delta impulse in time

  Optional k-point grid parameters
   LKPOINTS_OPT  =     F    use optional k-point grid
   KPOINTS_OPT_MODE=     1    mode for optional k-point grid

 Orbital magnetization related:
   ORBITALMAG=     F  switch on orbital magnetization
   LCHIMAG   =     F  perturbation theory with respect to B field
   DQ        =  0.001000  dq finite difference perturbation B field
   LLRAUG    =     F  two centre corrections for induced B field
   LBONE     =     F  B-component reconstruction in AE one-centre
   LVGVCALC  =     T  calculate vGv susceptibility
   LVGVAPPL  =     F  apply vGv susceptibility instead of pGv for G=0

 Random number generation:
   RANDOM_GENERATOR = DEFAULT
   PCG_SEED         = not used


--------------------------------------------------------------------------------------------------------


 conjugate gradient relaxation of ions
 charge density and potential will be updated during run
 spin polarized calculation
 Conjugate gradient for all bands (Freysoldt, et al. PRB 79, 241103 (2009))
 preconditioned conjugated gradient                                        
 perform sub-space diagonalisation
    before iterative eigenvector-optimisation
 modified Broyden-mixing scheme, WC =      100.0
 initial mixing is a Kerker type mixing with AMIX =  0.4000 and BMIX =      1.0000
 Hartree-type preconditioning will be used
 using additional bands          176
 real space projection scheme for non local part
 use partial core corrections
 no Harris-corrections to forces 
 use gradient corrections 
 use of overlap-Matrix (Vanderbilt PP)
 Gauss-broadening in eV      SIGMA  =   0.05


--------------------------------------------------------------------------------------------------------


  energy-cutoff  :      520.00
  volume of cell :     1920.79
      direct lattice vectors                 reciprocal lattice vectors
    10.406300000  0.000000000  0.000000000     0.096095634  0.000000000  0.000000000
     0.000000000 18.656100000  0.000000000     0.000000000  0.053601771  0.000000000
     0.000000000  0.000000000  9.893800000     0.000000000  0.000000000  0.101073400

  length of vectors
    10.406300000 18.656100000  9.893800000     0.096095634  0.053601771  0.101073400



 old parameters found on file WAVECAR:
  energy-cutoff  :      520.00
  volume of cell :     1920.79
      direct lattice vectors                 reciprocal lattice vectors
    10.406300000  0.000000000  0.000000000     0.096095634  0.000000000  0.000000000
     0.000000000 18.656100000  0.000000000     0.000000000  0.053601771  0.000000000
     0.000000000  0.000000000  9.893800000     0.000000000  0.000000000  0.101073400

  length of vectors


 k-points in units of 2pi/SCALE and weight: KPOINTS created by Atomic Simulation Env
   0.00000000  0.00000000  0.00000000       0.111
   0.03203188  0.00000000  0.00000000       0.222
   0.00000000  0.00000000  0.03369113       0.222
   0.03203188  0.00000000  0.03369113       0.222
  -0.03203188  0.00000000  0.03369113       0.222

 k-points in reciprocal lattice and weights: KPOINTS created by Atomic Simulation Env
   0.00000000  0.00000000  0.00000000       0.111
   0.33333333  0.00000000  0.00000000       0.222
   0.00000000  0.00000000  0.33333333       0.222
   0.33333333  0.00000000  0.33333333       0.222
  -0.33333333  0.00000000  0.33333333       0.222

 position of ions in fractional coordinates (direct lattice) 
   0.78205644  0.24714839  0.25487042
   0.27872476  0.25004506  0.49189373
   0.21967494  0.08346357  0.24433123
   0.71808850  0.08174579  0.00747654
   0.78078932  0.24644962  0.75812483
   0.28301226  0.25121427  0.99314373
   0.21799476  0.08206959  0.74445934
   0.71896437  0.08212797  0.50641188
   0.78202090  0.58614504  0.25484538
   0.27870957  0.58328412  0.49190054
   0.21977719  0.41670331  0.24515043
   0.72111920  0.41668236  0.01088506
   0.78077605  0.58689141  0.75808961
   0.28293414  0.58208978  0.99309964
   0.20891835  0.41673412  0.73724508
   0.72393390  0.41667963  0.48895643
   0.78104432  0.91666718  0.25681668
   0.28069089  0.91665878  0.49406873
   0.21971471  0.74985797  0.24435818
   0.71809156  0.75156640  0.00751036
   0.77953043  0.91668017  0.75747516
   0.28035638  0.91667374  0.99461655
   0.21798389  0.75125931  0.74450282
   0.71899759  0.75116770  0.50643037
   0.60766481  0.24919498  0.03153030
   0.10722054  0.24909930  0.21818800
   0.39273609  0.08266338  0.47170924
   0.89331329  0.08259667  0.27995504
   0.60603358  0.25102612  0.52934965
   0.10691411  0.24547972  0.71848764
   0.39254586  0.08300928  0.97114458
   0.89172338  0.08189041  0.78130127
   0.60763758  0.58415390  0.03148037
   0.10718448  0.58427834  0.21820600
   0.39340312  0.41669309  0.46680843
   0.89679313  0.41668606  0.27655205
   0.60602580  0.58228213  0.52928518
   0.10685720  0.58785421  0.71849863
   0.39163691  0.41665846  0.97816956
   0.88490451  0.41668279  0.77673729
   0.60589184  0.91665015  0.03087576
   0.10712225  0.91665294  0.22100786
   0.39276541  0.75063037  0.47178689
   0.89332781  0.75069571  0.28004026
   0.60662254  0.91665218  0.52984396
   0.10617837  0.91668486  0.72104020
   0.39253574  0.75028340  0.97114646
   0.89174771  0.75147137  0.78135412
   0.63712905  0.25067730  0.37755381
   0.13330357  0.24879307  0.37092570
   0.36557098  0.08281554  0.12395273
   0.86509846  0.08212879  0.12757352
   0.96097375  0.24920249  0.19225771
   0.46268301  0.24778791  0.05988801
   0.03900996  0.08281321  0.30553581
   0.53918796  0.08384734  0.44603261
   0.67950751  0.31389494  0.10307467
   0.17830750  0.18471120  0.14624644
   0.32081064  0.14675045  0.39860864
   0.82199538  0.01846975  0.35369582
   0.32309946  0.01795874  0.39824240
   0.82220676  0.14726689  0.35234141
   0.68070402  0.18498985  0.10322481
   0.17775524  0.31403230  0.14676355
   0.63304307  0.24914380  0.87821249
   0.13783163  0.24992855  0.87019392
   0.36618366  0.08193223  0.62423479
   0.86389293  0.08297030  0.62860534
   0.95967318  0.24772654  0.69765631
   0.45999763  0.24888280  0.55305213
   0.03670186  0.08039425  0.80899676
   0.53889407  0.08272655  0.94622517
   0.66985250  0.31773491  0.60227916
   0.17193754  0.17801665  0.65038866
   0.32273505  0.14742570  0.89814737
   0.81860976  0.01782231  0.85310156
   0.32182956  0.01826806  0.89895518
   0.82072194  0.14655430  0.85415165
   0.67995734  0.18792054  0.60360849
   0.17772408  0.30645019  0.63731665
   0.63706962  0.58265742  0.37747374
   0.13327566  0.58457867  0.37094160
   0.36879550  0.41669077  0.13130631
   0.87114104  0.41665675  0.12380808
   0.96094969  0.58420332  0.19225540
   0.46264676  0.58546680  0.05973909
   0.04120647  0.41670171  0.30628712
   0.53970958  0.41668796  0.43781077
   0.68058677  0.64836048  0.10326567
   0.17765411  0.51931821  0.14676643
   0.32123826  0.48122575  0.39578781
   0.82427445  0.35234932  0.34836135
   0.32125853  0.35215561  0.39580109
   0.82425801  0.48104839  0.34828190
   0.67956356  0.51946991  0.10299643
   0.17833361  0.64864287  0.14627576
   0.63303750  0.58424130  0.87817647
   0.13767144  0.58339572  0.87023916
   0.37146162  0.41671289  0.61993042
   0.85739156  0.41666046  0.62359692
   0.95963063  0.58561458  0.69758515
   0.46000884  0.58441093  0.55304561
   0.02778675  0.41670822  0.80495572
   0.53982725  0.41669070  0.95037317
   0.67995884  0.64536348  0.60359947
   0.17768472  0.52687143  0.63736602
   0.32828480  0.48285148  0.90718831
   0.81039389  0.35256066  0.84839479
   0.32836194  0.35043305  0.90726487
   0.81033564  0.48081171  0.84833000
   0.66986255  0.51556293  0.60217223
   0.17194498  0.65530399  0.65042361
   0.63454218  0.91664997  0.37731433
   0.13426631  0.91664322  0.37368954
   0.36569530  0.75048132  0.12398692
   0.86516730  0.75113498  0.12764824
   0.96089876  0.91667394  0.19561125
   0.46036214  0.91665985  0.05764700
   0.03902332  0.75043977  0.30566639
   0.53920769  0.74945055  0.44604201
   0.67759395  0.98097333  0.10359966
   0.17781975  0.85216845  0.14829482
   0.32308178  0.81532181  0.39829912
   0.82210754  0.68606482  0.35247097
   0.32083636  0.68653965  0.39870006
   0.82201137  0.81485382  0.35369450
   0.67757666  0.85230646  0.10355080
   0.17782930  0.98112708  0.14828324
   0.63269330  0.91666826  0.87818289
   0.13425464  0.91667899  0.87349901
   0.36626076  0.75138837  0.62432429
   0.86393035  0.75038136  0.62866014
   0.95999992  0.91669770  0.69603251
   0.46099235  0.91665072  0.55591490
   0.03672427  0.75297201  0.80910349
   0.53887719  0.75054909  0.94610163
   0.67765765  0.98111629  0.60259342
   0.17697659  0.85228644  0.64792228
   0.32175013  0.81502331  0.89900501
   0.82073025  0.68679608  0.85413241
   0.32258223  0.68588909  0.89817832
   0.81866946  0.81554645  0.85314097
   0.67769245  0.85220445  0.60260461
   0.17696660  0.98108091  0.64790623
   0.56000048  0.41678223  0.72619281

 position of ions in cartesian coordinates  (Angst):
   8.13831393  4.61082510  2.52163695
   2.90049343  4.66486565  4.86669814
   2.28600331  1.55710471  2.41736434
   7.47264435  1.52505764  0.07397134
   8.12512788  4.59778885  7.50073542
   2.94511046  4.68667855  9.82596546
   2.26851888  1.53109844  7.36553181
   7.48175887  1.53218759  5.01033787
   8.13794405 10.93518053  2.52138920
   2.90033535 10.88180691  4.86676558
   2.28706742  7.77405856  2.42546931
   7.50418275  7.77366781  0.10769458
   8.12498981 10.94910480  7.50038700
   2.94429759 10.85952514  9.82552918
   2.17406701  7.77463344  7.29415538
   7.53347331  7.77361687  4.83763708
   8.12778146 17.10143459  2.54089289
   2.92095359 17.10127778  4.88821721
   2.28641715 13.98942535  2.41763100
   7.47267623 14.02129797  0.07430604
   8.11202750 17.10167686  7.49430777
   2.91747260 17.10155702  9.84053725
   2.26840574 14.01556887  7.36596197
   7.48210466 14.01385981  5.01052084
   6.32354229  4.64900648  0.31195451
   1.11576908  4.64722152  2.15870842
   4.08692957  1.54217626  4.66699690
   9.29608609  1.54093177  2.76981917
   6.30656726  4.68316835  5.23727952
   1.11258026  4.57969411  7.10857303
   4.08494999  1.54862941  9.60831029
   9.27954099  1.52775568  7.73003854
   6.32325897 10.89803366  0.31146046
   1.11539382 10.90035509  2.15888656
   4.09387090  7.77386802  4.61850922
   9.33229836  7.77373672  2.73615066
   6.30648624 10.86311362  5.23664176
   1.11198812 10.96706696  7.10868170
   4.07549115  7.77322187  9.67781401
   9.20858183  7.77367571  7.68488339
   6.30509227 17.10111682  0.30547861
   1.11474624 17.10116890  2.18660760
   4.08723470 14.00383518  4.66776509
   9.29623722 14.00505427  2.77066236
   6.31269610 17.10115468  5.24217012
   1.10492397 17.10176438  7.13382756
   4.08484463 13.99736213  9.60832886
   9.27979423 14.01952498  7.73056141
   6.63015599  4.67666086  3.73544191
   1.38719696  4.64150849  3.66986465
   3.80424130  1.54501503  1.22636352
   9.00247412  1.53220284  1.26218690
  10.00018117  4.64914663  1.90215936
   4.81481820  4.62275602  0.59251997
   0.40594934  1.54497145  3.02291023
   5.61095166  1.56426437  4.41295746
   7.07115903  5.85605530  1.01980014
   1.85552135  3.44599055  1.44693307
   3.33845177  2.73779104  3.94375417
   8.55393049  0.34457356  3.49939572
   3.36226987  0.33503999  3.94013064
   8.55613023  2.74742578  3.48599544
   7.08361029  3.45118914  1.02128565
   1.84977431  5.85861801  1.45204919
   6.58763611  4.64805165  8.68885872
   1.43431734  4.66269207  8.60952460
   3.81061697  1.52853597  6.17605417
   8.98992898  1.54790218  6.21929556
   9.98664706  4.62161108  6.90247200
   4.78687335  4.64318248  5.47178719
   0.38193056  1.49984320  8.00405215
   5.60789334  1.54335482  9.36176256
   6.97068608  5.92769431  5.95882951
   1.78923365  3.32109639  6.43481532
   3.35847772  2.75038863  8.88609049
   8.51869879  0.33249475  8.44041624
   3.34905493  0.34081075  8.89408279
   8.54067872  2.73413169  8.45080558
   7.07584003  3.50586440  5.97198163
   1.84945005  5.71716539  6.30548344
   6.62953755 10.87011517  3.73464974
   1.38690655 10.90595806  3.67002198
   3.83779660  7.77382458  1.29911841
   9.06535502  7.77318999  1.22493239
   9.99993073 10.89895560  1.90213644
   4.81444096 10.92252721  0.59104657
   0.42880693  7.77402886  3.03034346
   5.61637976  7.77377220  4.33161217
   7.08239012 12.09587792  1.02168984
   1.84872194  9.68845247  1.45207772
   3.34290171  8.97779563  3.91584547
   8.57764717  6.57346422  3.44661752
   3.34311268  6.56985025  3.91597684
   8.57747617  8.97448694  3.44583149
   7.07174232  9.69128264  1.01902607
   1.85579306 12.10114620  1.44722310
   6.58757810 10.89966403  8.68850237
   1.43265026 10.88388896  8.60997223
   3.86554103  7.77423730  6.13346758
   8.92227381  7.77325920  6.16974321
   9.98620425 10.92528424  6.90176799
   4.78698996 10.90282879  5.47172267
   0.28915729  7.77415016  7.96407088
   5.61760427  7.77382331  9.40280207
   7.07585571 12.03996566  5.97189245
   1.84904048  9.82936604  6.30597193
   3.41623009  9.00812556  8.97553975
   8.43320193  6.57740685  8.39384834
   3.41703286  6.53771396  8.97629714
   8.43259572  8.97007131  8.39320739
   6.97079061  9.61839360  5.95777164
   1.78931100 12.22541668  6.43516109
   6.60323627 17.10111345  3.73307252
   1.39721549 17.10098764  3.69720957
   3.80553502 14.00105452  1.22670177
   9.00319049 14.01324938  1.26292619
   9.99940076 17.10156067  1.93533861
   4.79066655 17.10129782  0.57034789
   0.40608839 14.00027944  3.02420213
   5.61115697 13.98182450  4.41305047
   7.05124597 18.30113647  1.02499432
   1.85044562 15.89813982  1.46719924
   3.36208595 15.21072516  3.94069181
   8.55509774 12.79929396  3.48727728
   3.33871943 12.80815234  3.94465867
   8.55409696 15.20199442  3.49938264
   7.05106599 15.90071447  1.02451091
   1.85054500 18.30400492  1.46708467
   6.58399633 17.10145469  8.68856584
   1.39709402 17.10165497  8.64222447
   3.81141939 14.01797650  6.17693962
   8.99031839 13.99918966  6.21983770
   9.99004721 17.10200391  6.88640645
   4.79722474 17.10112756  5.50011085
   0.38216381 14.04752117  8.00510813
   5.60771768 14.00231896  9.36054029
   7.05190881 18.30380365  5.96193877
   1.84167149 15.90034100  6.41041344
   3.34822836 15.20515629  8.89457581
   8.54076524 12.81293628  8.45061524
   3.35688749 12.79601541  8.88639668
   8.51932003 15.21491609  8.44080616
   7.05227090 15.89881144  5.96204945
   1.84156753 18.30314354  6.41025470
   5.82753299  7.77553101  7.18480640



--------------------------------------------------------------------------------------------------------


 k-point   1 :   0.0000 0.0000 0.0000  plane waves:   51751
 k-point   2 :   0.3333 0.0000 0.0000  plane waves:   51719
 k-point   3 :   0.0000 0.0000 0.3333  plane waves:   51701
 k-point   4 :   0.3333 0.0000 0.3333  plane waves:   51716
 k-point   5 :  -0.3333 0.0000 0.3333  plane waves:   51716

 maximum and minimum number of plane-waves per node :     12949    12909

 maximum number of plane-waves:     51751
 maximum index in each direction: 
   IXMAX=   19   IYMAX=   34   IZMAX=   18
   IXMIN=  -19   IYMIN=  -34   IZMIN=  -18


 real space projection operators:
  total allocation   :      41642.66 KBytes
  max/ min on nodes  :      10446.72      10371.44


 parallel 3D FFT for wavefunctions:
    minimum data exchange during FFTs selected (reduces bandwidth)
 parallel 3D FFT for charge:
    minimum data exchange during FFTs selected (reduces bandwidth)


 total amount of memory used by VASP MPI-rank0   280339. kBytes
=======================================================================

   base      :      30000. kBytes
   nonlr-proj:      27521. kBytes
   fftplans  :       9556. kBytes
   grid      :      26700. kBytes
   one-center:       1150. kBytes
   wavefun   :     185412. kBytes

     INWAV:  cpu time     40.1550: real time     74.8389
 Broyden mixing: mesh for mixing (old mesh)
   NGX = 39   NGY = 69   NGZ = 37
  (NGX  =160   NGY  =280   NGZ  =160)
  gives a total of  99567 points

 charge density for first step will be calculated from the start-wavefunctions


--------------------------------------------------------------------------------------------------------


 Maximum index for non-local projection operator         1443
 Maximum index for augmentation-charges          699 (set IRDMAX)


--------------------------------------------------------------------------------------------------------


 initial charge from wavefunction
 First call to EWALD:  gamma=   0.143
 Maximum number of real-space cells 3x 2x 3
 Maximum number of reciprocal cells 2x 4x 2

    FEWALD:  cpu time      0.0056: real time      0.0056


--------------------------------------- Ionic step        1  -------------------------------------------




--------------------------------------- Iteration      1(   1)  ---------------------------------------


    POTLOK:  cpu time      0.1132: real time      0.1140
    SETDIJ:  cpu time      0.4427: real time      0.4449
    TRIAL :  cpu time      5.1809: real time      5.2222
    CORREC:  cpu time      9.7241: real time      9.7909
    CHARGE:  cpu time      0.1855: real time      0.1873
    --------------------------------------------
      LOOP:  cpu time     15.6903: real time     15.8164

 eigenvalue-minimisations  :     0
 total energy-change (2. order) :-0.1016900E+04  (-0.3155804E-01)
 number of electron    1039.0000069 magnetization     119.0000017
 augmentation part      257.1527970 magnetization      80.6936621

 Free energy of the ion-electron system (eV)
  ---------------------------------------------------
  alpha Z        PSCENC =      2648.81395470
  Ewald energy   TEWEN  =    -57933.15736205
  -Hartree energ DENC   =    -40793.25903141
  -exchange      EXHF   =         0.00000000
  -V(xc)+E(xc)   XCENC  =      4587.16053951
  PAW double counting   =    154078.82959038  -156139.54513893
  entropy T*S    EENTRO =        -0.00000000
  eigenvalues    EBANDS =    -12941.18365589
  atomic energy  EATOM  =    105475.44126576
  ---------------------------------------------------
  free energy    TOTEN  =     -1016.89983793 eV

  energy without entropy =    -1016.89983793  energy(sigma->0) =    -1016.89983793


--------------------------------------------------------------------------------------------------------




--------------------------------------- Iteration      1(   2)  ---------------------------------------


    POTLOK:  cpu time      0.1111: real time      0.1121
    SETDIJ:  cpu time      0.4404: real time      0.4426
    TRIAL :  cpu time      9.2202: real time      9.2813
    CORREC:  cpu time      9.7178: real time      9.7844
    CHARGE:  cpu time      0.1860: real time      0.1877
    --------------------------------------------
      LOOP:  cpu time     19.6871: real time     19.8199

 eigenvalue-minimisations  :     0
 total energy-change (2. order) :-0.6507999E-01  (-0.9268782E-03)
 number of electron    1039.0000069 magnetization     119.0000017
 augmentation part      257.1540023 magnetization      80.6939576

 Free energy of the ion-electron system (eV)
  ---------------------------------------------------
  alpha Z        PSCENC =      2648.81395470
  Ewald energy   TEWEN  =    -57933.15736205
  -Hartree energ DENC   =    -40793.04090251
  -exchange      EXHF   =         0.00000000
  -V(xc)+E(xc)   XCENC  =      4587.15904493
  PAW double counting   =    154076.21606596  -156136.95244108
  entropy T*S    EENTRO =        -0.00000000
  eigenvalues    EBANDS =    -12941.44454363
  atomic energy  EATOM  =    105475.44126576
  ---------------------------------------------------
  free energy    TOTEN  =     -1016.96491792 eV

  energy without entropy =    -1016.96491792  energy(sigma->0) =    -1016.96491792


--------------------------------------------------------------------------------------------------------




--------------------------------------- Iteration      1(   3)  ---------------------------------------


    POTLOK:  cpu time      0.1076: real time      0.1082
    SETDIJ:  cpu time      0.4453: real time      0.4475
    TRIAL :  cpu time      5.0931: real time      5.1318
    CORREC:  cpu time      2.4649: real time      2.4821
    CHARGE:  cpu time      0.1851: real time      0.1869
    --------------------------------------------
      LOOP:  cpu time      8.2969: real time      8.3573

 eigenvalue-minimisations  :     0
 total energy-change (2. order) :-0.4099561E-01  (-0.5475961E-02)
 number of electron    1039.0000069 magnetization     119.0000017
 augmentation part      257.1544940 magnetization      80.6938468

 Free energy of the ion-electron system (eV)
  ---------------------------------------------------
  alpha Z        PSCENC =      2648.81395470
  Ewald energy   TEWEN  =    -57933.15736205
  -Hartree energ DENC   =    -40792.85211701
  -exchange      EXHF   =         0.00000000
  -V(xc)+E(xc)   XCENC  =      4587.16004534
  PAW double counting   =    154074.41211270  -156135.16191318
  entropy T*S    EENTRO =        -0.00000000
  eigenvalues    EBANDS =    -12941.66189979
  atomic energy  EATOM  =    105475.44126576
  ---------------------------------------------------
  free energy    TOTEN  =     -1017.00591353 eV

  energy without entropy =    -1017.00591353  energy(sigma->0) =    -1017.00591353


--------------------------------------------------------------------------------------------------------




--------------------------------------- Iteration      1(   4)  ---------------------------------------


    POTLOK:  cpu time      0.1080: real time      0.1086
    SETDIJ:  cpu time      0.4449: real time      0.4470
    TRIAL :  cpu time      5.1151: real time      5.1539
    CORREC:  cpu time      6.3914: real time      6.4288
    CHARGE:  cpu time      0.1902: real time      0.1921
    --------------------------------------------
      LOOP:  cpu time     12.2505: real time     12.3314

 eigenvalue-minimisations  :     0
 total energy-change (2. order) :-0.5476412E-02  (-0.3175081E-02)
 number of electron    1039.0000069 magnetization     119.0000017
 augmentation part      257.1543550 magnetization      80.6935022

 Free energy of the ion-electron system (eV)
  ---------------------------------------------------
  alpha Z        PSCENC =      2648.81395470
  Ewald energy   TEWEN  =    -57933.15736205
  -Hartree energ DENC   =    -40792.92098110
  -exchange      EXHF   =         0.00000000
  -V(xc)+E(xc)   XCENC  =      4587.16353733
  PAW double counting   =    154074.72670228  -156135.48867952
  entropy T*S    EENTRO =        -0.00000000
  eigenvalues    EBANDS =    -12941.58982735
  atomic energy  EATOM  =    105475.44126576
  ---------------------------------------------------
  free energy    TOTEN  =     -1017.01138994 eV

  energy without entropy =    -1017.01138994  energy(sigma->0) =    -1017.01138994


--------------------------------------------------------------------------------------------------------




--------------------------------------- Iteration      1(   5)  ---------------------------------------


    POTLOK:  cpu time      0.1081: real time      0.1092
    SETDIJ:  cpu time      0.4443: real time      0.4467
    TRIAL :  cpu time      5.0804: real time      5.1274
    CORREC:  cpu time      2.4263: real time      2.4462
    CHARGE:  cpu time      0.1863: real time      0.1883
    --------------------------------------------
      LOOP:  cpu time      8.2462: real time      8.3184

 eigenvalue-minimisations  :     0
 total energy-change (2. order) :-0.3175728E-02  (-0.1368323E-02)
 number of electron    1039.0000069 magnetization     119.0000017
 augmentation part      257.1538478 magnetization      80.6931256

 Free energy of the ion-electron system (eV)
  ---------------------------------------------------
  alpha Z        PSCENC =      2648.81395470
  Ewald energy   TEWEN  =    -57933.15736205
  -Hartree energ DENC   =    -40793.01834639
  -exchange      EXHF   =         0.00000000
  -V(xc)+E(xc)   XCENC  =      4587.16422025
  PAW double counting   =    154074.93664993  -156135.68887355
  entropy T*S    EENTRO =        -0.00000000
  eigenvalues    EBANDS =    -12941.50607432
  atomic energy  EATOM  =    105475.44126576
  ---------------------------------------------------
  free energy    TOTEN  =     -1017.01456567 eV

  energy without entropy =    -1017.01456567  energy(sigma->0) =    -1017.01456567


--------------------------------------------------------------------------------------------------------




--------------------------------------- Iteration      1(   6)  ---------------------------------------


    POTLOK:  cpu time      0.1087: real time      0.1095
    SETDIJ:  cpu time      0.4429: real time      0.4454
    TRIAL :  cpu time      5.1029: real time      5.1408
    CORREC:  cpu time      2.4277: real time      2.4441
    CHARGE:  cpu time      0.1879: real time      0.1897
    --------------------------------------------
      LOOP:  cpu time      8.2711: real time      8.3372

 eigenvalue-minimisations  :     0
 total energy-change (2. order) :-0.1368240E-02  (-0.7756421E-03)
 number of electron    1039.0000069 magnetization     119.0000017
 augmentation part      257.1538287 magnetization      80.6929371

 Free energy of the ion-electron system (eV)
  ---------------------------------------------------
  alpha Z        PSCENC =      2648.81395470
  Ewald energy   TEWEN  =    -57933.15736205
  -Hartree energ DENC   =    -40793.05551852
  -exchange      EXHF   =         0.00000000
  -V(xc)+E(xc)   XCENC  =      4587.16156527
[...]
      0.42881      7.77403      3.03034         0.008280     -0.001119     -0.015871
      5.61638      7.77377      4.33161        -0.025673      0.000093     -0.012450
      7.08239     12.09588      1.02169         0.001586     -0.005855      0.005059
      1.84872      9.68845      1.45208         0.007243      0.004586      0.001991
      3.34290      8.97780      3.91585         0.007265     -0.018159      0.000512
      8.57765      6.57346      3.44662         0.001753      0.000966     -0.013869
      3.34311      6.56985      3.91598         0.006864      0.018056      0.001884
      8.57748      8.97449      3.44583         0.002363      0.000232     -0.012379
      7.07174      9.69128      1.01903        -0.001432     -0.010900      0.002729
      1.85579     12.10115      1.44722        -0.004970      0.005229     -0.004106
      6.58758     10.89966      8.68850        -0.001603     -0.001006     -0.004523
      1.43265     10.88389      8.60997        -0.000006     -0.001632     -0.001701
      3.86554      7.77424      6.13347         0.006670      0.000266     -0.019933
      8.92227      7.77326      6.16974         0.005524     -0.000523     -0.005740
      9.98620     10.92528      6.90177        -0.002505     -0.002858      0.000381
      4.78699     10.90283      5.47172        -0.009142      0.000380     -0.000941
      0.28916      7.77415      7.96407        -0.003981      0.000869     -0.004683
      5.61760      7.77382      9.40280        -0.006764     -0.000181      0.005726
      7.07586     12.03997      5.97189         0.006898     -0.003386      0.006024
      1.84904      9.82937      6.30597         0.000647     -0.003198     -0.000091
      3.41623      9.00813      8.97554         0.002347     -0.004365     -0.007034
      8.43320      6.57741      8.39385         0.007591      0.000920     -0.009322
      3.41703      6.53771      8.97630         0.001968      0.001860     -0.007290
      8.43260      8.97007      8.39321         0.008423     -0.000650     -0.008981
      6.97079      9.61839      5.95777        -0.005346     -0.012401     -0.002372
      1.78931     12.22542      6.43516         0.002567     -0.003775      0.000379
      6.60324     17.10111      3.73307        -0.000391     -0.000383      0.003240
      1.39722     17.10099      3.69721         0.002494      0.000495      0.000901
      3.80554     14.00105      1.22670        -0.001295     -0.000469     -0.001021
      9.00319     14.01325      1.26293        -0.003261     -0.001115      0.003669
      9.99940     17.10156      1.93534        -0.001620      0.000302      0.002698
      4.79067     17.10130      0.57035        -0.000179     -0.000244      0.000452
      0.40609     14.00028      3.02420        -0.001137      0.001630      0.003411
      5.61116     13.98182      4.41305         0.001733     -0.004312      0.003477
      7.05125     18.30114      1.02499        -0.001231      0.000052      0.001220
      1.85045     15.89814      1.46720        -0.002685     -0.000113      0.001322
      3.36209     15.21073      3.94069         0.004718      0.000716      0.002126
      8.55510     12.79929      3.48728         0.001842     -0.001474      0.004586
      3.33872     12.80815      3.94466        -0.002752     -0.000733     -0.001676
      8.55410     15.20199      3.49938        -0.003850     -0.000181      0.002440
      7.05107     15.90071      1.02451        -0.001378     -0.000025      0.001892
      1.85054     18.30400      1.46708        -0.001535      0.000046      0.000677
      6.58400     17.10145      8.68857         0.001406      0.000477      0.002116
      1.39709     17.10165      8.64222         0.000238     -0.000422      0.000002
      3.81142     14.01798      6.17694        -0.000553     -0.000119      0.000602
      8.99032     13.99919      6.21984        -0.004330     -0.004803      0.005200
      9.99005     17.10200      6.88641        -0.000649     -0.000086     -0.000109
      4.79722     17.10113      5.50011         0.000249     -0.000848      0.002538
      0.38216     14.04752      8.00511        -0.001248     -0.003183      0.001798
      5.60772     14.00232      9.36054        -0.000708     -0.003348     -0.000363
      7.05191     18.30380      5.96194         0.000739     -0.000781      0.002100
      1.84167     15.90034      6.41041         0.000293     -0.000798      0.000852
      3.34823     15.20516      8.89458         0.000157     -0.002874     -0.001598
      8.54077     12.81294      8.45062        -0.003415     -0.001413      0.003408
      3.35689     12.79602      8.88640        -0.000697     -0.002501      0.001958
      8.51932     15.21492      8.44081        -0.000022     -0.001916      0.004734
      7.05227     15.89881      5.96205         0.000892      0.000580      0.002591
      1.84157     18.30314      6.41025        -0.000050     -0.000056      0.000748
      5.82753      7.77553      7.18481         0.028228     -0.000569     -0.007228
 -----------------------------------------------------------------------------------
    total drift:                                0.012797      0.016503     -0.035234


--------------------------------------------------------------------------------------------------------



  FREE ENERGIE OF THE ION-ELECTRON SYSTEM (eV)
  ---------------------------------------------------
  free  energy   TOTEN  =     -1017.01727641 eV

  energy  without entropy=    -1017.01727641  energy(sigma->0) =    -1017.01727641



--------------------------------------------------------------------------------------------------------


    POTLOK:  cpu time      0.5524: real time      0.5554


--------------------------------------------------------------------------------------------------------




--------------------------------------------------------------------------------------------------------


 writing wavefunctions
     LOOP+:  cpu time    202.2420: real time    232.9214
    4ORBIT:  cpu time      0.0000: real time      0.0000



 total charge

# of ion       s       p       d       tot
------------------------------------------
    1        0.254   6.285   5.524  12.063
    2        0.255   6.286   5.528  12.069
    3        0.253   6.282   5.520  12.054
    4        0.254   6.285   5.523  12.062
    5        0.254   6.283   5.525  12.061
    6        0.253   6.282   5.519  12.054
    7        0.254   6.286   5.521  12.060
    8        0.252   6.279   5.521  12.052
    9        0.254   6.285   5.524  12.063
   10        0.255   6.286   5.528  12.069
   11        0.258   6.291   5.527  12.076
   12        0.257   6.288   5.529  12.074
   13        0.254   6.283   5.525  12.062
   14        0.253   6.282   5.519  12.054
   15        0.184   6.171   5.899  12.254
   16        0.260   6.297   5.553  12.110
   17        0.253   6.282   5.521  12.056
   18        0.253   6.282   5.520  12.054
   19        0.252   6.281   5.520  12.054
   20        0.254   6.285   5.523  12.061
   21        0.253   6.283   5.521  12.057
   22        0.253   6.282   5.520  12.055
   23        0.254   6.286   5.521  12.060
   24        0.252   6.279   5.521  12.052
   25        0.908   1.479   0.000   2.387
   26        0.909   1.480   0.000   2.389
   27        0.908   1.476   0.000   2.384
   28        0.908   1.479   0.000   2.387
   29        0.908   1.478   0.000   2.386
   30        0.908   1.479   0.000   2.387
   31        0.908   1.478   0.000   2.386
   32        0.908   1.479   0.000   2.388
   33        0.908   1.479   0.000   2.387
   34        0.909   1.480   0.000   2.389
   35        0.909   1.480   0.000   2.389
   36        0.909   1.485   0.000   2.394
   37        0.908   1.478   0.000   2.386
   38        0.908   1.479   0.000   2.386
   39        0.909   1.485   0.000   2.393
   40        0.910   1.488   0.000   2.398
   41        0.908   1.479   0.000   2.387
   42        0.908   1.478   0.000   2.386
   43        0.908   1.476   0.000   2.384
   44        0.908   1.479   0.000   2.387
   45        0.908   1.480   0.000   2.388
   46        0.908   1.477   0.000   2.385
   47        0.908   1.478   0.000   2.386
   48        0.908   1.479   0.000   2.388
   49        1.565   3.591   0.000   5.155
   50        1.566   3.591   0.000   5.157
   51        1.566   3.589   0.000   5.154
   52        1.566   3.589   0.000   5.155
   53        1.558   3.585   0.000   5.142
   54        1.559   3.586   0.000   5.145
   55        1.558   3.587   0.000   5.145
   56        1.557   3.583   0.000   5.140
   57        1.564   3.541   0.000   5.105
   58        1.565   3.543   0.000   5.108
   59        1.564   3.542   0.000   5.106
   60        1.564   3.543   0.000   5.107
   61        1.564   3.542   0.000   5.106
   62        1.564   3.544   0.000   5.108
   63        1.564   3.545   0.000   5.109
   64        1.564   3.541   0.000   5.106
   65        1.565   3.586   0.000   5.152
   66        1.565   3.588   0.000   5.153
   67        1.566   3.587   0.000   5.154
   68        1.565   3.587   0.000   5.153
   69        1.557   3.584   0.000   5.141
   70        1.558   3.588   0.000   5.145
   71        1.559   3.586   0.000   5.145
   72        1.558   3.586   0.000   5.143
   73        1.565   3.542   0.000   5.107
   74        1.565   3.548   0.000   5.113
   75        1.565   3.541   0.000   5.106
   76        1.564   3.547   0.000   5.111
   77        1.564   3.544   0.000   5.108
   78        1.564   3.545   0.000   5.109
   79        1.564   3.540   0.000   5.104
   80        1.566   3.549   0.000   5.115
   81        1.565   3.591   0.000   5.155
   82        1.566   3.591   0.000   5.157
   83        1.567   3.594   0.000   5.161
   84        1.567   3.589   0.000   5.156
   85        1.558   3.585   0.000   5.143
   86        1.559   3.586   0.000   5.145
   87        1.559   3.595   0.000   5.154
   88        1.557   3.582   0.000   5.140
   89        1.564   3.545   0.000   5.109
   90        1.564   3.541   0.000   5.106
   91        1.564   3.546   0.000   5.110
   92        1.565   3.548   0.000   5.112
   93        1.564   3.546   0.000   5.110
   94        1.565   3.548   0.000   5.112
   95        1.564   3.542   0.000   5.105
   96        1.565   3.543   0.000   5.108
   97        1.565   3.586   0.000   5.152
   98        1.565   3.588   0.000   5.153
   99        1.563   3.609   0.000   5.171
  100        1.564   3.590   0.000   5.154
  101        1.557   3.584   0.000   5.141
  102        1.558   3.588   0.000   5.146
  103        1.560   3.601   0.000   5.162
  104        1.555   3.602   0.000   5.157
  105        1.564   3.541   0.000   5.105
  106        1.566   3.549   0.000   5.115
  107        1.564   3.555   0.000   5.120
  108        1.564   3.538   0.000   5.103
  109        1.564   3.555   0.000   5.120
  110        1.564   3.538   0.000   5.103
  111        1.565   3.542   0.000   5.107
  112        1.565   3.548   0.000   5.113
  113        1.566   3.588   0.000   5.154
  114        1.566   3.588   0.000   5.154
  115        1.566   3.588   0.000   5.154
  116        1.566   3.589   0.000   5.154
  117        1.558   3.585   0.000   5.142
  118        1.558   3.586   0.000   5.145
  119        1.558   3.587   0.000   5.145
  120        1.557   3.582   0.000   5.140
  121        1.564   3.545   0.000   5.109
  122        1.565   3.542   0.000   5.107
  123        1.564   3.542   0.000   5.106
  124        1.564   3.544   0.000   5.108
  125        1.564   3.543   0.000   5.107
  126        1.564   3.542   0.000   5.107
  127        1.564   3.545   0.000   5.109
  128        1.565   3.542   0.000   5.107
  129        1.566   3.588   0.000   5.153
  130        1.566   3.589   0.000   5.154
  131        1.566   3.587   0.000   5.153
  132        1.565   3.587   0.000   5.153
  133        1.558   3.584   0.000   5.142
  134        1.558   3.587   0.000   5.145
  135        1.559   3.586   0.000   5.145
  136        1.558   3.585   0.000   5.143
  137        1.564   3.544   0.000   5.108
  138        1.564   3.544   0.000   5.108
  139        1.564   3.544   0.000   5.108
  140        1.564   3.546   0.000   5.109
  141        1.565   3.541   0.000   5.106
  142        1.564   3.546   0.000   5.111
  143        1.564   3.544   0.000   5.108
  144        1.564   3.544   0.000   5.108
  145        0.048   5.989   0.000   6.038
--------------------------------------------------
tot        177.927 534.566 132.951 845.444



 magnetization (x)

# of ion       s       p       d       tot
------------------------------------------
    1        0.024   0.031   4.289   4.344
    2        0.024   0.032   4.285   4.341
    3        0.024   0.031   4.291   4.345
    4        0.024   0.031   4.291   4.346
    5        0.024   0.031   4.283   4.339
    6        0.023   0.031   4.293   4.347
    7        0.023   0.031   4.295   4.349
    8        0.024   0.031   4.287   4.342
    9        0.024   0.031   4.289   4.344
   10        0.024   0.032   4.285   4.341
   11        0.025   0.031   4.290   4.346
   12        0.024   0.031   4.284   4.339
   13        0.024   0.031   4.283   4.339
   14        0.023   0.031   4.293   4.347
   15        0.027   0.020   3.740   3.787
   16        0.022   0.033   4.261   4.317
   17        0.024   0.031   4.290   4.345
   18        0.024   0.031   4.292   4.347
   19        0.024   0.031   4.291   4.345
   20        0.024   0.031   4.291   4.346
   21        0.024   0.031   4.292   4.347
   22        0.024   0.031   4.292   4.346
   23        0.023   0.031   4.295   4.349
   24        0.024   0.031   4.287   4.342
   25        0.003   0.011   0.000   0.014
   26        0.003   0.012   0.000   0.015
   27        0.003   0.011   0.000   0.015
   28        0.003   0.011   0.000   0.015
   29        0.003   0.011   0.000   0.014
   30        0.004   0.012   0.000   0.016
   31        0.003   0.012   0.000   0.015
   32        0.003   0.011   0.000   0.015
   33        0.003   0.011   0.000   0.014
   34        0.003   0.012   0.000   0.015
   35        0.003   0.010   0.000   0.013
   36        0.004   0.012   0.000   0.015
   37        0.003   0.011   0.000   0.014
   38        0.004   0.012   0.000   0.016
   39        0.004   0.012   0.000   0.016
   40        0.003   0.010   0.000   0.013
   41        0.003   0.011   0.000   0.015
   42        0.003   0.011   0.000   0.015
   43        0.003   0.011   0.000   0.015
   44        0.003   0.011   0.000   0.015
   45        0.003   0.011   0.000   0.015
   46        0.004   0.012   0.000   0.015
   47        0.003   0.012   0.000   0.015
   48        0.003   0.011   0.000   0.015
   49        0.007   0.106   0.000   0.113
   50        0.007   0.108   0.000   0.116
   51        0.007   0.112   0.000   0.120
   52        0.007   0.108   0.000   0.115
   53        0.008   0.106   0.000   0.113
   54        0.008   0.095   0.000   0.102
   55        0.008   0.098   0.000   0.106
   56        0.008   0.107   0.000   0.114
   57        0.010   0.124   0.000   0.134
   58        0.010   0.121   0.000   0.130
   59        0.010   0.121   0.000   0.131
   60        0.010   0.127   0.000   0.137
   61        0.010   0.125   0.000   0.135
   62        0.010   0.126   0.000   0.136
   63        0.010   0.127   0.000   0.138
   64        0.010   0.124   0.000   0.135
   65        0.007   0.105   0.000   0.113
   66        0.008   0.110   0.000   0.118
   67        0.007   0.106   0.000   0.114
   68        0.007   0.110   0.000   0.118
   69        0.008   0.111   0.000   0.119
   70        0.007   0.093   0.000   0.100
   71        0.008   0.095   0.000   0.102
   72        0.008   0.106   0.000   0.114
   73        0.008   0.108   0.000   0.116
   74        0.010   0.126   0.000   0.136
   75        0.010   0.121   0.000   0.131
   76        0.010   0.127   0.000   0.138
   77        0.010   0.122   0.000   0.132
   78        0.011   0.129   0.000   0.140
   79        0.010   0.123   0.000   0.133
   80        0.008   0.113   0.000   0.121
   81        0.007   0.106   0.000   0.113
   82        0.007   0.108   0.000   0.116
   83        0.007   0.106   0.000   0.113
   84        0.007   0.110   0.000   0.118
   85        0.008   0.106   0.000   0.113
   86        0.008   0.095   0.000   0.102
   87        0.007   0.096   0.000   0.103
   88        0.008   0.091   0.000   0.098
   89        0.010   0.127   0.000   0.138
   90        0.010   0.125   0.000   0.135
   91        0.010   0.125   0.000   0.135
   92        0.010   0.126   0.000   0.136
   93        0.010   0.124   0.000   0.135
   94        0.010   0.126   0.000   0.136
   95        0.010   0.124   0.000   0.134
   96        0.010   0.121   0.000   0.130
   97        0.007   0.105   0.000   0.112
   98        0.008   0.110   0.000   0.118
   99        0.003   0.027   0.000   0.030
  100        0.008   0.115   0.000   0.123
  101        0.008   0.111   0.000   0.119
  102        0.007   0.093   0.000   0.100
  103        0.003   0.044   0.000   0.047
  104        0.007   0.089   0.000   0.096
  105        0.010   0.123   0.000   0.133
  106        0.008   0.113   0.000   0.121
  107        0.008   0.091   0.000   0.100
  108        0.010   0.122   0.000   0.132
  109        0.008   0.091   0.000   0.100
  110        0.010   0.122   0.000   0.132
  111        0.008   0.108   0.000   0.116
  112        0.010   0.126   0.000   0.136
  113        0.007   0.109   0.000   0.117
  114        0.007   0.110   0.000   0.118
  115        0.007   0.112   0.000   0.120
  116        0.007   0.108   0.000   0.115
  117        0.008   0.105   0.000   0.112
  118        0.008   0.099   0.000   0.107
  119        0.008   0.098   0.000   0.105
  120        0.008   0.106   0.000   0.114
  121        0.010   0.127   0.000   0.137
  122        0.010   0.124   0.000   0.134
  123        0.010   0.125   0.000   0.135
  124        0.010   0.126   0.000   0.136
  125        0.010   0.121   0.000   0.131
  126        0.010   0.127   0.000   0.137
  127        0.010   0.127   0.000   0.137
  128        0.010   0.124   0.000   0.134
  129        0.007   0.109   0.000   0.117
  130        0.007   0.109   0.000   0.116
  131        0.007   0.106   0.000   0.114
  132        0.007   0.110   0.000   0.118
  133        0.008   0.103   0.000   0.110
  134        0.008   0.100   0.000   0.107
  135        0.008   0.095   0.000   0.103
  136        0.008   0.106   0.000   0.114
  137        0.010   0.126   0.000   0.137
  138        0.010   0.123   0.000   0.133
  139        0.010   0.122   0.000   0.132
  140        0.011   0.129   0.000   0.140
  141        0.010   0.121   0.000   0.131
  142        0.010   0.127   0.000   0.138
  143        0.010   0.126   0.000   0.137
  144        0.010   0.123   0.000   0.134
  145       -0.000   0.000   0.000   0.000
--------------------------------------------------
tot          1.485  11.738 102.370 115.593


 total amount of memory used by VASP MPI-rank0   280339. kBytes
=======================================================================

   base      :      30000. kBytes
   nonlr-proj:      27521. kBytes
   fftplans  :       9556. kBytes
   grid      :      26700. kBytes
   one-center:       1150. kBytes
   wavefun   :     185412. kBytes

  
  
 General timing and accounting informations for this job:
 ========================================================
  
                  Total CPU time used (sec):      269.218
                            User time (sec):      258.020
                          System time (sec):       11.199
                         Elapsed time (sec):      346.682
  
                   Maximum memory used (kb):      909296.
                   Average memory used (kb):          N/A
  
                          Minor page faults:       111444
                          Major page faults:           51
                 Voluntary context switches:       199063
