112
Lattice="10.569166646 -2.6216e-05 -0.011673491 -0.000100193 12.701890098 -0.0003299 -0.010347418 -1.0948e-05 10.059238412" Properties=species:S:1:pos:R:3:bader_charge:R:1:forces:R:3:magmoms:R:1 energy=-761.06854801 stress="3.847890376107029e-05 -1.4773652100965673e-05 1.9111500943454538e-05 -1.4773652100965673e-05 0.0001290244766502587 1.5791018088484645e-06 1.9111500943454538e-05 1.5791018088484645e-06 0.00010030105165294397" magmom=67.9999982 free_energy=-761.06854801 pbc="T T T"
Mn       3.01587000       1.58812000       4.98686000      -1.54703000      -0.00287500       0.00000000      -0.00128100       4.65100000
Mn       8.26870000       1.58744000       2.53099000      -1.54404400       0.00243400      -0.00041300       0.00793600       4.64900000
Mn       3.01070000       1.58812000      10.01648000      -1.54703000      -0.00288100      -0.00000800      -0.00129800       4.65100000
Mn       8.26353000       1.58744000       7.56061000      -1.54404400       0.00243100      -0.00040600       0.00793400       4.64900000
Mn       3.01582000       7.93907000       4.98670000      -1.54703000      -0.00286600      -0.00000900      -0.00128400       4.65100000
Mn       8.26865000       7.93839000       2.53083000      -1.54404400       0.00242000      -0.00042500       0.00793100       4.64900000
Mn       3.01065000       7.93906000      10.01632000      -1.54703000      -0.00286800      -0.00000700      -0.00129800       4.65100000
Mn       8.26348000       7.93838000       7.56044000      -1.54404400       0.00242900      -0.00042300       0.00793500       4.64900000
Fe       2.27891000       4.76290000       2.44963000      -1.48486800      -0.00578600       0.00007500       0.00267400       3.77000000
Fe       2.27373000       4.76289000       7.47925000      -1.48484000      -0.00577800       0.00007000       0.00268700       3.77000000
Fe       2.27885000      11.11384000       2.44947000      -1.48479000      -0.00580000       0.00009400       0.00268000       3.77000000
Fe       2.27368000      11.11384000       7.47909000      -1.48486800      -0.00575900       0.00008600       0.00269500       3.77000000
Co       7.58384000       4.76345000       0.02626000      -1.45210000       0.00077500       0.00029700       0.00511000       2.77500000
Co       7.57866000       4.76344000       5.05588000      -1.45209900       0.00078600       0.00028500       0.00511200       2.77500000
Co       7.58379000      11.11439000       0.02610000      -1.45210000       0.00077500       0.00029100       0.00507300       2.77500000
Co       7.57861000      11.11439000       5.05572000      -1.45210000       0.00076400       0.00028700       0.00504000       2.77500000
Na      10.55152000       6.34400000       0.00355000      -0.88524600      -0.00087100      -0.00544500      -0.00060800      -0.00000000
Na       5.30660000       6.32981000       2.49129000      -0.88419500       0.00142900       0.00062600      -0.00193900      -0.00000000
Na      10.54960000       3.18124000       0.00388000      -0.88522400       0.00046100       0.00559100      -0.00140100      -0.00000000
Na       5.30808000       3.19752000       2.49157000      -0.88411800       0.00045600      -0.00072700      -0.00238300      -0.00000000
Na      10.54635000       6.34399000       5.03317000      -0.88524600      -0.00087600      -0.00544300      -0.00060300      -0.00000000
Na       5.30143000       6.32981000       7.52091000      -0.88419500       0.00142900       0.00062600      -0.00194200      -0.00000000
Na      10.54442000       3.18124000       5.03350000      -0.88522400       0.00046300       0.00558800      -0.00139800      -0.00000000
Na       5.30291000       3.19752000       7.52119000      -0.88411800       0.00045700      -0.00072500      -0.00238300      -0.00000000
Na      10.55147000      12.69494000       0.00338000      -0.88524600      -0.00087100      -0.00544200      -0.00060000      -0.00000000
Na       5.30655000      12.68076000       2.49113000      -0.88419500       0.00143100       0.00062700      -0.00194500      -0.00000000
Na      10.54955000       9.53219000       0.00372000      -0.88522400       0.00046300       0.00558800      -0.00139800      -0.00000000
Na       5.30803000       9.54847000       2.49140000      -0.88411800       0.00045200      -0.00072800      -0.00238300      -0.00000000
Na      10.54630000      12.69494000       5.03300000      -0.88524600      -0.00087300      -0.00544000      -0.00060900      -0.00000000
Na       5.30138000      12.68075000       7.52075000      -0.88419500       0.00143100       0.00062600      -0.00194300      -0.00000000
Na      10.54437000       9.53218000       5.03334000      -0.88522400       0.00046500       0.00558700      -0.00140300      -0.00000000
Na       5.30286000       9.54846000       7.52102000      -0.88411800       0.00045600      -0.00072500      -0.00238700      -0.00000000
O        1.17889000       1.58774000       3.77581000       1.87964100      -0.00184300      -0.00034100      -0.00855400       0.01500000
O        4.08554000       4.76347000       1.22023000       1.86314000       0.00014100      -0.00089800      -0.00097600       0.01600000
O        9.30426000       4.76344000       1.28178000       1.86091200      -0.00189000      -0.00033700       0.00059100       0.02600000
O        6.45382000       1.58731000       3.76338000       1.87745700      -0.00366900       0.00138000       0.00759600       0.01600000
O        4.95760000       1.58836000       0.80599000       1.86152100      -0.00124300      -0.00071700       0.00576700       0.02000000
O        0.31771000       4.76236000       3.30764000       1.85785100      -0.00136700       0.00099500       0.01275800       0.02000000
O        5.66075000       4.76332000       4.24010000       1.85026500      -0.00360300       0.00068800      -0.00817200       0.02800000
O       10.23293000       1.58757000       1.70440000       1.86343600       0.00217900      -0.00002200      -0.00294400       0.01900000
O        1.86151000       0.34871000       1.60011000       1.80925000      -0.00115000       0.00327200      -0.00031700       0.03600000
O        3.44851000       5.99137000       4.04625000       1.81178100       0.00635400       0.00004500       0.00115800       0.03400000
O        8.67884000       3.53629000       3.48856000       1.80482900       0.00215600      -0.00135300       0.00071700       0.04100000
O        7.15634000       2.82659000       0.90500000       1.80264800      -0.00745700      -0.00598700      -0.00665200       0.04500000
O        8.67977000       5.98998000       3.48922000       1.85402900       0.00108200       0.00248500      -0.00032600       0.04100000
O        7.15572000       0.34908000       0.90566000       1.85154600      -0.00647600       0.00577800      -0.00783100       0.04500000
O        1.86186000       2.82599000       1.59986000       1.85743900      -0.00120200      -0.00204800      -0.00063600       0.03600000
O        3.44842000       3.53567000       4.04622000       1.86107900       0.00602600      -0.00034100       0.00067300       0.03400000
O        1.17372000       1.58773000       8.80543000       1.87964100      -0.00186300      -0.00033000      -0.00856300       0.01500000
O        4.08037000       4.76347000       6.24985000       1.86314000       0.00016100      -0.00090400      -0.00096800       0.01600000
O        9.29908000       4.76343000       6.31140000       1.86091200      -0.00190700      -0.00032300       0.00056900       0.02600000
O        6.44865000       1.58731000       8.79300000       1.87744800      -0.00366100       0.00137600       0.00759500       0.01600000
O        4.95242000       1.58835000       5.83561000       1.86152100      -0.00125600      -0.00070800       0.00576900       0.02000000
O        0.31254000       4.76235000       8.33726000       1.85782300      -0.00137000       0.00097700       0.01272800       0.02000000
O        5.65558000       4.76331000       9.26972000       1.85026500      -0.00362400       0.00069400      -0.00818400       0.02800000
O       10.22776000       1.58756000       6.73402000       1.86343700       0.00216100      -0.00000700      -0.00293400       0.01900000
O        1.85633000       0.34870000       6.62973000       1.80924900      -0.00113100       0.00324400      -0.00030200       0.03600000
O        3.44333000       5.99137000       9.07587000       1.81178100       0.00635000       0.00004300       0.00114500       0.03400000
O        8.67367000       3.53629000       8.51818000       1.80483600       0.00215900      -0.00133600       0.00071300       0.04100000
O        7.15117000       2.82659000       5.93462000       1.80264800      -0.00742500      -0.00597100      -0.00663600       0.04500000
O        8.67460000       5.98997000       8.51884000       1.85402900       0.00109700       0.00252300      -0.00035900       0.04100000
O        7.15054000       0.34907000       5.93528000       1.85154600      -0.00648400       0.00576900      -0.00782000       0.04500000
O        1.85668000       2.82598000       6.62948000       1.85743900      -0.00120100      -0.00204600      -0.00063500       0.03600000
O        3.44324000       3.53566000       9.07584000       1.86107900       0.00602000      -0.00033600       0.00067900       0.03400000
O        1.17884000       7.93869000       3.77564000       1.87964100      -0.00185800      -0.00033300      -0.00856100       0.01500000
O        4.08549000      11.11442000       1.22007000       1.86313900       0.00013700      -0.00090500      -0.00097100       0.01600000
O        9.30421000      11.11438000       1.28162000       1.86091200      -0.00189200      -0.00030700       0.00058800       0.02600000
O        6.45377000       7.93826000       3.76322000       1.87745700      -0.00366500       0.00136900       0.00760000       0.01600000
O        4.95755000       7.93930000       0.80582000       1.86152000      -0.00125500      -0.00070800       0.00576700       0.02000000
O        0.31766000      11.11330000       3.30747000       1.85782300      -0.00136600       0.00097200       0.01272800       0.02000000
O        5.66070000      11.11426000       4.23994000       1.85026400      -0.00362400       0.00069500      -0.00814600       0.02800000
O       10.23288000       7.93851000       1.70424000       1.86343600       0.00217400      -0.00000500      -0.00294800       0.01900000
O        1.86146000       6.69965000       1.59995000       1.80925000      -0.00115300       0.00325500      -0.00031400       0.03600000
O        3.44846000      12.34232000       4.04608000       1.81178100       0.00634300       0.00003500       0.00112300       0.03400000
O        8.67879000       9.88724000       3.48840000       1.80482900       0.00217700      -0.00136000       0.00070600       0.04100000
O        7.15629000       9.17754000       0.90483000       1.80264800      -0.00743300      -0.00599700      -0.00663200       0.04500000
O        8.67972000      12.34092000       3.48905000       1.85402900       0.00111300       0.00250300      -0.00033400       0.04100000
O        7.15567000       6.70002000       0.90549000       1.85154600      -0.00646800       0.00574600      -0.00784000       0.04500000
O        1.86181000       9.17693000       1.59969000       1.85743900      -0.00121000      -0.00202200      -0.00064500       0.03600000
O        3.44837000       9.88661000       4.04606000       1.86102900       0.00604000      -0.00033100       0.00069800       0.03400000
O        1.17367000       7.93868000       8.80526000       1.87964100      -0.00184900      -0.00033900      -0.00855500       0.01500000
O        4.08032000      11.11441000       6.24969000       1.86314000       0.00014000      -0.00089200      -0.00096800       0.01600000
O        9.29903000      11.11438000       6.31124000       1.86091200      -0.00189300      -0.00030700       0.00059100       0.02600000
O        6.44860000       7.93825000       8.79283000       1.87745700      -0.00366900       0.00137900       0.00759400       0.01600000
O        4.95237000       7.93930000       5.83544000       1.86152100      -0.00124600      -0.00070500       0.00576900       0.02000000
O        0.31249000      11.11329000       8.33709000       1.85785000      -0.00134700       0.00097000       0.01274500       0.02000000
O        5.65553000      11.11425000       9.26956000       1.85026400      -0.00361800       0.00069300      -0.00816600       0.02800000
O       10.22771000       7.93851000       6.73385000       1.86343700       0.00217600      -0.00001900      -0.00293500       0.01900000
O        1.85628000       6.69965000       6.62957000       1.80925000      -0.00114300       0.00325900      -0.00031200       0.03600000
O        3.44328000      12.34231000       9.07570000       1.81178100       0.00636000       0.00002500       0.00112600       0.03400000
O        8.67362000       9.88723000       8.51801000       1.80482900       0.00216400      -0.00136400       0.00070400       0.04100000
O        7.15112000       9.17753000       5.93445000       1.80264800      -0.00743100      -0.00600300      -0.00661600       0.04500000
O        8.67455000      12.34092000       8.51867000       1.85402800       0.00111000       0.00251100      -0.00032400       0.04100000
O        7.15049000       6.70002000       5.93511000       1.85154600      -0.00647300       0.00573200      -0.00783800       0.04500000
O        1.85663000       9.17693000       6.62931000       1.85743900      -0.00119100      -0.00203500      -0.00061700       0.03600000
O        3.44319000       9.88661000       9.07567000       1.86108000       0.00601700      -0.00032900       0.00066100       0.03400000
P        1.12828000       1.58751000       2.23527000      -5.00000000       0.00421700      -0.00060400       0.00802500       0.01200000
P        4.17300000       4.76350000       4.70869000      -5.00000000       0.00158200      -0.00032400      -0.00022400       0.01000000
P        9.40383000       4.76302000       2.82568000      -5.00000000       0.00558900       0.00008100      -0.00244800       0.01000000
P        6.41880000       1.58789000       0.27359000      -5.00000000       0.00454400      -0.00176400      -0.00626200       0.01100000
P        1.12311000       1.58751000       7.26489000      -5.00000000       0.00419800      -0.00057600       0.00803700       0.01200000
P        4.16783000       4.76349000       9.73831000      -5.00000000       0.00158000      -0.00032800      -0.00024700       0.01000000
P        9.39865000       4.76301000       7.85529000      -5.00000000       0.00559300       0.00007400      -0.00246000       0.01000000
P        6.41362000       1.58789000       5.30321000      -5.00000000       0.00455500      -0.00176800      -0.00625200       0.01100000
P        1.12823000       7.93846000       2.23510000      -5.00000000       0.00420600      -0.00058400       0.00803900       0.01200000
P        4.17295000      11.11444000       4.70853000      -5.00000000       0.00154900      -0.00036000      -0.00022100       0.01000000
P        9.40378000      11.11396000       2.82551000      -5.00000000       0.00560800       0.00008500      -0.00245300       0.01000000
P        6.41875000       7.93884000       0.27343000      -5.00000000       0.00455300      -0.00175800      -0.00626400       0.01100000
P        1.12306000       7.93845000       7.26472000      -5.00000000       0.00420600      -0.00060500       0.00803700       0.01200000
P        4.16778000      11.11444000       9.73815000      -5.00000000       0.00155400      -0.00032400      -0.00025200       0.01000000
P        9.39860000      11.11396000       7.85513000      -5.00000000       0.00558800       0.00008100      -0.00244600       0.01000000
P        6.41357000       7.93883000       5.30305000      -5.00000000       0.00454700      -0.00175100      -0.00625900       0.01100000
104
Lattice="10.254061244 0.141924234 -0.062231865 0.170954286 12.275830131 0.016985094 -0.06175166 0.010773131 10.085487287" Properties=species:S:1:pos:R:3:bader_charge:R:1:forces:R:3:magmoms:R:1 energy=-724.69270295 stress="2.7843372210565213e-05 -4.4139952538246405e-05 6.8469355110939345e-06 -4.4139952538246405e-05 1.8237689665830882e-05 1.980430845642758e-05 6.8469355110939345e-06 1.980430845642758e-05 3.527076807036629e-05" magmom=68.0000005 free_energy=-724.69890855 pbc="T T T"
Mn       2.86019000       1.62479000       4.96228000      -1.59971500      -0.00243200       0.00106200      -0.00302600       4.58000000
Mn       7.39277000       4.61278000       0.18614000      -1.81128400       0.00301400      -0.00332800       0.00407100       4.08300000
Mn       2.82933000       1.63019000      10.00502000      -1.59983100      -0.00236400       0.00095800      -0.00319500       4.58000000
Mn       7.36189000       4.61819000       5.22889000      -1.81128800       0.00309600      -0.00363800       0.00397200       4.08300000
Mn       2.94567000       7.76272000       4.97078000      -1.59968400      -0.00232000       0.00105900      -0.00320700       4.58000000
Mn       7.47824000      10.75079000       0.19464000      -1.81120000       0.00326500      -0.00420900       0.00399500       4.08300000
Mn       2.91479000       7.76810000      10.01352000      -1.59965300      -0.00236000       0.00114600      -0.00307600       4.58000000
Mn       7.44737000      10.75614000       5.23738000      -1.81139800       0.00298200      -0.00378000       0.00401700       4.08300000
Fe       2.29235000       4.57832000       2.45331000      -1.94823000      -0.01030100       0.00033100       0.00442400       4.33900000
Fe       2.26147000       4.58370000       7.49607000      -1.94811600      -0.01032800       0.00057000       0.00434900       4.33900000
Fe       2.37782000      10.71632000       2.46181000      -1.94814200      -0.01039900      -0.00013100       0.00434700       4.33900000
Fe       2.34695000      10.72171000       7.50454000      -1.94816900      -0.01034700      -0.00037500       0.00421900       4.33900000
Co       8.03471000       1.74771000       2.62105000      -1.47306800       0.00228900       0.00702400      -0.00511900       2.76100000
Co       8.00383000       1.75310000       7.66381000      -1.47311200       0.00208400       0.00715300      -0.00502100       2.76100000
Co       8.12019000       7.88564000       2.62956000      -1.47308600       0.00220500       0.00719000      -0.00505700       2.76100000
Co       8.08931000       7.89102000       7.67228000      -1.47307400       0.00236700       0.00706500      -0.00509200       2.76100000
Na      10.16925000       0.22963000      -0.04020000      -0.88964700      -0.00165200      -0.00135400       0.00086900       0.00000000
Na       5.13676000       0.10678000       2.47601000      -0.89108800       0.00039700       0.00100600       0.00018300       0.00000000
Na      10.13836000       0.23500000       5.00255000      -0.88964600      -0.00161100      -0.00129600       0.00088000       0.00000000
Na       5.10588000       0.11216000       7.51877000      -0.89106700       0.00043000       0.00099900       0.00019500       0.00000000
Na      10.25471000       6.36752000      -0.03170000      -0.88964800      -0.00166100      -0.00129500       0.00090800       0.00000000
Na       5.22224000       6.24468000       2.48452000      -0.89107100       0.00043000       0.00103100       0.00021600       0.00000000
Na      10.22384000       6.37292000       5.01104000      -0.88964500      -0.00164400      -0.00134500       0.00087900       0.00000000
Na       5.19136000       6.25007000       7.52725000      -0.89108100       0.00037400       0.00099900       0.00018500       0.00000000
O        1.16183000       1.53128000       3.77697000       1.84908600      -0.00104100      -0.00064600       0.00283000       0.01000000
O        3.87628000       4.67045000       1.16500000       1.80882300       0.00451300       0.00126100      -0.00119200       0.06900000
O        9.05626000       4.72294000       1.24004000       1.74311500      -0.00480700      -0.00107800       0.00166700      -0.03200000
O        6.34201000       1.60190000       3.74677000       1.85152900       0.00178900       0.00205600      -0.00233900       0.02800000
O        4.79811000       1.60763000       0.70814000       1.83058600       0.00874500       0.00637800      -0.00486800       0.00400000
O        0.47469000       4.61733000       3.19415000       1.75439300       0.00558900      -0.00375300       0.00347100       0.08100000
O        5.58575000       4.64509000       4.34231000       1.78053200       0.00473100      -0.00526700       0.00171200      -0.01200000
O        9.86386000       1.71613000       1.69986000       1.83880000      -0.00104400       0.00463100      -0.00483400       0.03200000
O        1.78888000       0.31713000       1.57382000       1.76662300      -0.00100800      -0.00468700       0.00116200       0.09200000
O        3.41029000       5.85068000       3.92314000       1.78202700      -0.00249900       0.00228900       0.00208800       0.06400000
O        8.46429000       3.56733000       3.48030000       1.79080900      -0.00903700       0.01183700       0.00119300       0.06300000
O        7.07457000       2.76078000       0.89998000       1.72660600       0.00633100      -0.00970600      -0.00385200      -0.00400000
O        8.56176000       5.99873000       3.45137000       1.83633900      -0.00208500      -0.00004400      -0.00356700       0.05600000
O        6.93414000       0.32751000       0.90388000       1.73471300      -0.00644600      -0.00813400      -0.00473900      -0.02100000
O        1.87496000       2.77562000       1.63060000       1.75124800       0.00777500       0.00416300      -0.00052800       0.11000000
O        3.32423000       3.47524000       3.96058000       1.76775500      -0.00132700      -0.00372400       0.00195900       0.08000000
O        1.13102000       1.53668000       8.81976000       1.84904100      -0.00187100      -0.00077500       0.00255700       0.01000000
O        3.84540000       4.67586000       6.20775000       1.80881500       0.00450000       0.00099900      -0.00131900       0.06900000
O        9.02540000       4.72834000       6.28280000       1.74312000      -0.00507100      -0.00111700       0.00168100      -0.03200000
O        6.31112000       1.60731000       8.78953000       1.85164600       0.00199400       0.00196200      -0.00312500       0.02800000
O        4.76728000       1.61300000       5.75092000       1.83063800       0.00837500       0.00633000      -0.00532000       0.00400000
O        0.44382000       4.62270000       8.23691000       1.75440600       0.00557300      -0.00357600       0.00355900       0.08100000
O        5.55488000       4.65045000       9.38507000       1.78054800       0.00470500      -0.00530600       0.00144700      -0.01200000
O        9.83298000       1.72150000       6.74263000       1.83876400      -0.00107000       0.00470200      -0.00462500       0.03200000
O        1.75798000       0.32250000       6.61661000       1.76673300      -0.00081300      -0.00445500       0.00077600       0.09200000
O        3.37942000       5.85602000       8.96587000       1.78194300      -0.00261700       0.00228500       0.00209800       0.06400000
O        8.43341000       3.57272000       8.52307000       1.79080500      -0.00895900       0.01174500       0.00094600       0.06300000
O        7.04370000       2.76614000       5.94273000       1.72661400       0.00657700      -0.00967800      -0.00403800      -0.00400000
O        8.53088000       6.00411000       8.49413000       1.83634100      -0.00202700       0.00017000      -0.00359200       0.05600000
O        6.90329000       0.33282000       5.94659000       1.73476100      -0.00646200      -0.00764600      -0.00466100      -0.02100000
O        1.84407000       2.78102000       6.67341000       1.75121800       0.00797300       0.00366300      -0.00071900       0.11000000
O        3.29335000       3.48058000       9.00335000       1.76772500      -0.00107400      -0.00335400       0.00167700       0.08000000
O        1.24730000       7.66920000       3.78550000       1.84899700      -0.00105600      -0.00065400       0.00244000       0.01000000
O        3.96175000      10.80848000       1.17349000       1.80884000       0.00477700       0.00084700      -0.00103200       0.06900000
O        9.14176000      10.86091000       1.24856000       1.74316100      -0.00517800      -0.00119200       0.00144600      -0.03200000
O        6.42750000       7.73985000       3.75527000       1.85150600       0.00185900       0.00190600      -0.00216500       0.02800000
O        4.88365000       7.74553000       0.71668000       1.83060800       0.00818300       0.00634200      -0.00570900       0.00400000
O        0.56017000      10.75529000       3.20266000       1.75439900       0.00564000      -0.00366300       0.00361500       0.08100000
O        5.67126000      10.78306000       4.35084000       1.78051100       0.00440300      -0.00536400       0.00128900      -0.01200000
O        9.94931000       7.85404000       1.70837000       1.83877600      -0.00045400       0.00468300      -0.00473000       0.03200000
O        1.87431000       6.45500000       1.58237000       1.76671600      -0.00061200      -0.00399900       0.00066900       0.09200000
O        3.49578000      11.98864000       3.93163000       1.78204400      -0.00228500       0.00197500       0.00213500       0.06400000
O        8.54975000       9.70530000       3.48884000       1.79070300      -0.00905400       0.01148300       0.00116100       0.06300000
O        7.16005000       8.89869000       0.90848000       1.72673700       0.00669900      -0.00969100      -0.00420600      -0.00400000
O        8.64722000      12.13668000       3.45990000       1.83639400      -0.00185500      -0.00006100      -0.00379100       0.05600000
O        7.01964000       6.46535000       0.91235000       1.73476000      -0.00627500      -0.00773300      -0.00492700      -0.02100000
O        1.96040000       8.91358000       1.63917000       1.75116700       0.00821100       0.00336700      -0.00075200       0.11000000
O        3.40972000       9.61321000       3.96909000       1.76766600      -0.00127400      -0.00401500       0.00172600       0.08000000
O        1.21639000       7.67458000       8.82821000       1.84906900      -0.00070100      -0.00062900       0.00260100       0.01000000
O        3.93089000      10.81383000       6.21624000       1.80882700       0.00475700       0.00110900      -0.00105700       0.06900000
O        9.11083000      10.86629000       6.29126000       1.74313400      -0.00451500      -0.00113900       0.00192300      -0.03200000
O        6.39663000       7.74521000       8.79800000       1.85138900       0.00180500       0.00200400      -0.00189500       0.02800000
O        4.85276000       7.75094000       5.75940000       1.83056300       0.00834800       0.00639800      -0.00514100       0.00400000
O        0.52929000      10.76070000       8.24538000       1.75437200       0.00573300      -0.00359900       0.00309800       0.08100000
O        5.64034000      10.78847000       9.39354000       1.78045200       0.00471200      -0.00532500       0.00171900      -0.01200000
O        9.91843000       7.85944000       6.75109000       1.83881100      -0.00092300       0.00488300      -0.00482900       0.03200000
O        1.84344000       6.46040000       6.62508000       1.76659600      -0.00079800      -0.00423800       0.00097600       0.09200000
O        3.46488000      11.99408000       8.97440000       1.78200500      -0.00231300       0.00178200       0.00204900       0.06400000
O        8.51889000       9.71067000       8.53152000       1.79074700      -0.00920400       0.01153500       0.00139900       0.06300000
O        7.12918000       8.90412000       5.95119000       1.72677600       0.00653800      -0.00994800      -0.00367400      -0.00400000
O        8.61637000      12.14208000       8.50259000       1.83637100      -0.00210800      -0.00015700      -0.00352100       0.05600000
O        6.98876000       6.47078000       5.95510000       1.73478200      -0.00621200      -0.00803300      -0.00466600      -0.02100000
O        1.92953000       8.91896000       6.68186000       1.75120000       0.00804600       0.00387300      -0.00072500       0.11000000
O        3.37884000       9.61863000       9.01180000       1.76775900      -0.00161800      -0.00412400       0.00194700       0.08000000
P        1.05659000       1.56670000       2.25297000      -5.00000000      -0.00651000       0.00389800      -0.00054700       0.01300000
P        4.07253000       4.64241000       4.68700000      -5.00000000      -0.00039200      -0.00376000      -0.00558800       0.01300000
P        9.20589000       4.74452000       2.79269000      -5.00000000       0.00624800       0.00757800      -0.00084400       0.01300000
P        6.25642000       1.59074000       0.22379000      -5.00000000      -0.00098500      -0.00739200       0.01724400       0.01700000
P        1.02570000       1.57208000       7.29575000      -5.00000000      -0.00599600       0.00391300      -0.00066800       0.01300000
P        4.04167000       4.64776000       9.72975000      -5.00000000      -0.00066100      -0.00344600      -0.00544800       0.01300000
P        9.17502000       4.74990000       7.83545000      -5.00000000       0.00634800       0.00752200      -0.00115500       0.01300000
P        6.22557000       1.59609000       5.26653000      -5.00000000      -0.00127600      -0.00713900       0.01698000       0.01700000