 vasp.6.4.0 14Feb23 (build Mar 11 2024 14:58:30) complex                         
 executed on             epyc9004 date 2024.08.19  19:03:30
 running  288 mpi-ranks, on    3 nodes
 distrk:  each k-point on   96 cores,    3 groups
 distr:  one band on NCORE=   4 cores,   24 groups


--------------------------------------------------------------------------------------------------------


 INCAR:
   ENCUT = 520.000000
   SIGMA = 0.050000
   TIME = 0.050000
   NUPDOWN = 119.000000
   EDIFF = 1.00e-06
   EDIFFG = -2.00e-02
   SYMPREC = 1.00e-07
   ALGO = all
   GGA = PE
   PREC = accurate
   IBRION = 2
   ISIF = 2
   ISMEAR = 0
   ISPIN = 2
   ISYM = 0
   KPAR = 3
   LMAXMIX = 4
   LORBIT = 12
   NELM = 300
   NELMIN = 8
   NSW = 1
   NCORE = 4
   LASPH = .TRUE.
   LCHARG = .TRUE.
   LDAU = .TRUE.
   LWAVE = .TRUE.
   LREAL = auto
   LDAUL = 2 -1 -1 -1
   LDAUU = 5.300 0.000 0.000 0.000
   LDAUJ = 0.000 0.000 0.000 0.000
   MAGMOM = 1*4.3467 1*4.3403 1*4.3443 1*4.3460 1*4.3417 1*4.3437 1*4.3490 1*4.3450 1*4.3453 1*4.3407 1*4.3460 1*4.3430 1*4.3423 1*4.3453 1*3.7850 1*4.3300 1*4.3450 1*4.3460 1*4.3447 1*4.3460 1*4.3470 1*4.3463 1*4.3490 1*4.3450 1*0.0137 3*0.0150 1*0.0137 1*0.0160 2*0.0150 1*0.0143 1*0.0150 1*0.0130 1*0.0150 1*0.0143 2*0.0160 1*0.0130 8*0.0150 1*0.1073 1*0.1167 1*0.1190 1*0.1157 1*0.1120 1*0.1007 1*0.1083 1*0.1107 1*0.1320 1*0.1317 1*0.1300 2*0.1360 1*0.1340 1*0.1320 1*0.1350 1*0.1017 1*0.1190 1*0.1123 1*0.1167 1*0.1220 1*0.0907 1*0.1033 1*0.1120 1*0.1197 1*0.1360 1*0.1310 1*0.1377 1*0.1313 1*0.1377 1*0.1303 1*0.1230 1*0.1117 1*0.1163 1*0.1120 1*0.1170 1*0.1120 1*0.1023 1*0.1070 1*0.1040 3*0.1350 1*0.1333 1*0.1360 1*0.1357 1*0.1340 1*0.1313 1*0.1093 1*0.1180 1*0.0300 1*0.1250 1*0.1193 1*0.0973 1*0.0490 1*0.1000 1*0.1327 1*0.1210 1*0.0967 1*0.1363 1*0.0933 1*0.1387 1*0.1273 1*0.1360 1*0.1170 1*0.1180 1*0.1190 1*0.1153 1*0.1110 1*0.1080 1*0.1077 1*0.1113 1*0.1367 1*0.1347 1*0.1360 1*0.1350 1*0.1310 1*0.1360 1*0.1363 1*0.1353 1*0.1170 1*0.1160 1*0.1127 1*0.1173 1*0.1093 1*0.1080 1*0.1037 1*0.1120 1*0.1360 1*0.1340 1*0.1317 1*0.1380 1*0.1317 1*0.1383 1*0.1360 1*0.1340 1*0.0000

 POTCAR:    PAW_PBE Fe_pv 02Aug2007               
 POTCAR:    PAW_PBE P 06Sep2000                   
 POTCAR:    PAW_PBE O 08Apr2002                   
 POTCAR:    PAW_PBE Na_pv 19Sep2006               
 -----------------------------------------------------------------------------
|                                                                             |
|           W    W    AA    RRRRR   N    N  II  N    N   GGGG   !!!           |
|           W    W   A  A   R    R  NN   N  II  NN   N  G    G  !!!           |
|           W    W  A    A  R    R  N N  N  II  N N  N  G       !!!           |
|           W WW W  AAAAAA  RRRRR   N  N N  II  N  N N  G  GGG   !            |
|           WW  WW  A    A  R   R   N   NN  II  N   NN  G    G                |
|           W    W  A    A  R    R  N    N  II  N    N   GGGG   !!!           |
|                                                                             |
|     For optimal performance we recommend to set                             |
|       NCORE = 2 up to number-of-cores-per-socket                            |
|     NCORE specifies how many cores store one orbital (NPAR=cpu/NCORE).      |
|     This setting can greatly improve the performance of VASP for DFT.       |
|     The default, NCORE=1 might be grossly inefficient on modern             |
|     multi-core architectures or massively parallel machines. Do your        |
|     own testing! More info at https://www.vasp.at/wiki/index.php/NCORE      |
|     Unfortunately you need to use the default for GW and RPA                |
|     calculations (for HF NCORE is supported but not extensively tested      |
|     yet).                                                                   |
|                                                                             |
 -----------------------------------------------------------------------------

 POTCAR:    PAW_PBE Fe_pv 02Aug2007               
   VRHFIN =Fe:  3pd7s1                                                                              
   LEXCH  = PE                                                                                      
   EATOM  =  2457.4239 eV,  180.6156 Ry                                                             
                                                                                                    
   TITEL  = PAW_PBE Fe_pv 02Aug2007                                                                 
   LULTRA =        F    use ultrasoft PP ?                                                          
   IUNSCR =        1    unscreen: 0-lin 1-nonlin 2-no                                               
   RPACOR =    1.750    partial core radius                                                         
   POMASS =   55.847; ZVAL   =   14.000    mass and valenz                                          
   RCORE  =    2.200    outmost cutoff radius                                                       
   RWIGS  =    2.200; RWIGS  =    1.164    wigner-seitz radius (au A)                               
   ENMAX  =  293.238; ENMIN  =  219.928 eV                                                          
   ICORE  =        3    local potential                                                             
   LCOR   =        T    correct aug charges                                                         
   LPAW   =        T    paw PP                                                                      
   EAUG   =  578.342                                                                                
   DEXC   =    0.000                                                                                
   RMAX   =    2.249    core radius for proj-oper                                                   
   RAUG   =    1.300    factor for augmentation sphere                                              
   RDEP   =    2.296    radius for radial grids                                                     
   RDEPT  =    1.766    core radius for aug-charge                                                  
                                                                                                    
   Atomic configuration                                                                             
    8 entries                                                                                       
     n  l   j            E        occ.                                                              
     1  0  0.50     -6993.8440   2.0000                                                             
     2  0  0.50      -814.6047   2.0000                                                             
     2  1  1.50      -693.3689   6.0000                                                             
     3  0  0.50       -89.4732   2.0000                                                             
     3  1  1.50       -55.6373   6.0000                                                             
     3  2  2.50        -3.8151   7.0000                                                             
     4  0  0.50        -4.2551   1.0000                                                             
     4  3  2.50        -1.3606   0.0000                                                             
   Description                                                                                      
     l       E           TYP  RCUT    TYP  RCUT                                                     
     1    -55.6372668     23  2.000                                                                 
     1     -5.4423304     23  2.000                                                                 
     2     -3.8151096     23  2.200                                                                 
     2     -5.1756922     23  2.200                                                                 
     0     -4.2550951     23  2.200                                                                 
     0     27.2116520     23  2.200                                                                 
     3     -1.3605826     23  2.200                                                                 
  local pseudopotential read in
  partial core-charges read in
  partial kinetic energy density read in
  atomic valenz-charges read in
  non local Contribution for L=           1  read in
    real space projection operators read in
  non local Contribution for L=           1  read in
    real space projection operators read in
  non local Contribution for L=           2  read in
    real space projection operators read in
  non local Contribution for L=           2  read in
    real space projection operators read in
  non local Contribution for L=           0  read in
    real space projection operators read in
  non local Contribution for L=           0  read in
    real space projection operators read in
    PAW grid and wavefunctions read in

   number of l-projection  operators is LMAX  =           6
   number of lm-projection operators is LMMAX =          18

 POTCAR:    PAW_PBE P 06Sep2000                   
   VRHFIN =P : s2p3                                                                                 
   LEXCH  = PE                                                                                      
   EATOM  =   176.0430 eV,   12.9388 Ry                                                             
                                                                                                    
   TITEL  = PAW_PBE P 06Sep2000                                                                     
   LULTRA =        F    use ultrasoft PP ?                                                          
   IUNSCR =        1    unscreen: 0-lin 1-nonlin 2-no                                               
   RPACOR =    1.500    partial core radius                                                         
   POMASS =   30.974; ZVAL   =    5.000    mass and valenz                                          
   RCORE  =    1.900    outmost cutoff radius                                                       
   RWIGS  =    2.330; RWIGS  =    1.233    wigner-seitz radius (au A)                               
   ENMAX  =  255.040; ENMIN  =  191.280 eV                                                          
   ICORE  =        2    local potential                                                             
   LCOR   =        T    correct aug charges                                                         
   LPAW   =        T    paw PP                                                                      
   EAUG   =  342.924                                                                                
   DEXC   =    0.000                                                                                
   RMAX   =    1.935    core radius for proj-oper                                                   
   RAUG   =    1.300    factor for augmentation sphere                                              
   RDEP   =    1.931    radius for radial grids                                                     
   RDEPT  =    1.794    core radius for aug-charge                                                  
                                                                                                    
   Atomic configuration                                                                             
    6 entries                                                                                       
     n  l   j            E        occ.                                                              
     1  0  0.50     -2084.0982   2.0000                                                             
     2  0  0.50      -173.9859   2.0000                                                             
     2  1  1.50      -124.4865   6.0000                                                             
     3  0  0.50       -13.9692   2.0000                                                             
     3  1  0.50        -5.5067   3.0000                                                             
     3  2  1.50        -5.4423   0.0000                                                             
   Description                                                                                      
     l       E           TYP  RCUT    TYP  RCUT                                                     
     0    -13.9691527     23  1.900                                                                 
     0    -11.7794650     23  1.900                                                                 
     1     -5.5066937     23  1.900                                                                 
     1     -0.2556953     23  1.900                                                                 
     2     -5.4423304     23  1.900                                                                 
  local pseudopotential read in
  partial core-charges read in
  partial kinetic energy density read in
  atomic valenz-charges read in
  non local Contribution for L=           0  read in
    real space projection operators read in
  non local Contribution for L=           0  read in
    real space projection operators read in
  non local Contribution for L=           1  read in
    real space projection operators read in
  non local Contribution for L=           1  read in
    real space projection operators read in
    PAW grid and wavefunctions read in

   number of l-projection  operators is LMAX  =           4
   number of lm-projection operators is LMMAX =           8

 POTCAR:    PAW_PBE O 08Apr2002                   
   VRHFIN =O: s2p4                                                                                  
   LEXCH  = PE                                                                                      
   EATOM  =   432.3788 eV,   31.7789 Ry                                                             
                                                                                                    
   TITEL  = PAW_PBE O 08Apr2002                                                                     
   LULTRA =        F    use ultrasoft PP ?                                                          
   IUNSCR =        1    unscreen: 0-lin 1-nonlin 2-no                                               
   RPACOR =    1.200    partial core radius                                                         
   POMASS =   16.000; ZVAL   =    6.000    mass and valenz                                          
   RCORE  =    1.520    outmost cutoff radius                                                       
   RWIGS  =    1.550; RWIGS  =    0.820    wigner-seitz radius (au A)                               
   ENMAX  =  400.000; ENMIN  =  300.000 eV                                                          
   ICORE  =        2    local potential                                                             
   LCOR   =        T    correct aug charges                                                         
   LPAW   =        T    paw PP                                                                      
   EAUG   =  605.392                                                                                
   DEXC   =    0.000                                                                                
   RMAX   =    1.553    core radius for proj-oper                                                   
   RAUG   =    1.300    factor for augmentation sphere                                              
   RDEP   =    1.550    radius for radial grids                                                     
   RDEPT  =    1.329    core radius for aug-charge                                                  
                                                                                                    
   Atomic configuration                                                                             
    4 entries                                                                                       
     n  l   j            E        occ.                                                              
     1  0  0.50      -514.6923   2.0000                                                             
     2  0  0.50       -23.9615   2.0000                                                             
     2  1  0.50        -9.0305   4.0000                                                             
     3  2  1.50        -9.5241   0.0000                                                             
   Description                                                                                      
     l       E           TYP  RCUT    TYP  RCUT                                                     
     0    -23.9615318     23  1.200                                                                 
     0     -9.5240782     23  1.200                                                                 
     1     -9.0304911     23  1.520                                                                 
     1      8.1634956     23  1.520                                                                 
     2     -9.5240782      7  1.500                                                                 
  local pseudopotential read in
  partial core-charges read in
  partial kinetic energy density read in
  kinetic energy density of atom read in
  atomic valenz-charges read in
  non local Contribution for L=           0  read in
    real space projection operators read in
  non local Contribution for L=           0  read in
    real space projection operators read in
  non local Contribution for L=           1  read in
    real space projection operators read in
  non local Contribution for L=           1  read in
    real space projection operators read in
    PAW grid and wavefunctions read in

   number of l-projection  operators is LMAX  =           4
   number of lm-projection operators is LMMAX =           8

 POTCAR:    PAW_PBE Na_pv 19Sep2006               
   VRHFIN =Na: p6s1                                                                                 
   LEXCH  = PE                                                                                      
   EATOM  =   766.0439 eV,   56.3026 Ry                                                             
                                                                                                    
   TITEL  = PAW_PBE Na_pv 19Sep2006                                                                 
   LULTRA =        F    use ultrasoft PP ?                                                          
   IUNSCR =        1    unscreen: 0-lin 1-nonlin 2-no                                               
   RPACOR =    1.800    partial core radius                                                         
   POMASS =   22.990; ZVAL   =    7.000    mass and valenz                                          
   RCORE  =    2.200    outmost cutoff radius                                                       
   RWIGS  =    2.200; RWIGS  =    1.164    wigner-seitz radius (au A)                               
   ENMAX  =  259.561; ENMIN  =  194.671 eV                                                          
   ICORE  =        2    local potential                                                             
   LCOR   =        T    correct aug charges                                                         
   LPAW   =        T    paw PP                                                                      
   EAUG   =  368.056                                                                                
   DEXC   =    0.000                                                                                
   RMAX   =    2.245    core radius for proj-oper                                                   
   RAUG   =    1.300    factor for augmentation sphere                                              
   RDEP   =    2.259    radius for radial grids                                                     
   RDEPT  =    1.738    core radius for aug-charge                                                  
                                                                                                    
   Atomic configuration                                                                             
    5 entries                                                                                       
     n  l   j            E        occ.                                                              
     1  0  0.50     -1033.6933   2.0000                                                             
     2  0  0.50       -56.7526   2.0000                                                             
     2  1  1.50       -28.6721   6.0000                                                             
     3  0  0.50        -2.7440   1.0000                                                             
     3  2  1.50        -1.3606   0.0000                                                             
   Description                                                                                      
     l       E           TYP  RCUT    TYP  RCUT                                                     
     1    -28.6720912     23  2.000                                                                 
     1      6.8029130     23  2.000                                                                 
     0     -2.7439560     23  2.200                                                                 
     0     34.0145650     23  2.200                                                                 
     2     -1.3605826     23  2.200                                                                 
  local pseudopotential read in
  partial core-charges read in
  partial kinetic energy density read in
  atomic valenz-charges read in
  non local Contribution for L=           1  read in
    real space projection operators read in
  non local Contribution for L=           1  read in
    real space projection operators read in
  non local Contribution for L=           0  read in
    real space projection operators read in
  non local Contribution for L=           0  read in
    real space projection operators read in
    PAW grid and wavefunctions read in

   number of l-projection  operators is LMAX  =           4
   number of lm-projection operators is LMMAX =           8

 Optimization of the real space projectors (new method)

 maximal supplied QI-value         = 17.01
 optimisation between [QCUT,QGAM] = [ 11.57, 23.30] = [ 37.45,152.03] Ry 
 Optimized for a Real-space Cutoff    1.45 Angstroem

   l    n(q)    QCUT    max X(q) W(low)/X(q) W(high)/X(q)  e(spline) 
   1     10    11.565     4.267    0.91E-04    0.15E-03    0.13E-06
   1     10    11.565     5.750    0.14E-03    0.22E-03    0.20E-06
   2      9    11.565    53.656    0.13E-03    0.57E-04    0.16E-06
   2      9    11.565    49.521    0.13E-03    0.59E-04    0.16E-06
   0     10    11.565    31.246    0.61E-04    0.74E-05    0.89E-07
   0     10    11.565    12.201    0.44E-04    0.68E-05    0.74E-07
 Optimization of the real space projectors (new method)

 maximal supplied QI-value         = 19.84
 optimisation between [QCUT,QGAM] = [ 11.51, 23.22] = [ 37.09,150.92] Ry 
 Optimized for a Real-space Cutoff    1.21 Angstroem

   l    n(q)    QCUT    max X(q) W(low)/X(q) W(high)/X(q)  e(spline) 
   0      8    11.508   160.924    0.96E-04    0.17E-03    0.52E-07
   0      8    11.508   130.086    0.95E-04    0.17E-03    0.51E-07
   1      8    11.508    74.434    0.16E-03    0.74E-04    0.91E-07
   1      8    11.508    49.120    0.16E-03    0.71E-04    0.89E-07
 Optimization of the real space projectors (new method)

 maximal supplied QI-value         = 24.76
 optimisation between [QCUT,QGAM] = [ 11.64, 23.27] = [ 37.91,151.63] Ry 
 Optimized for a Real-space Cutoff    1.14 Angstroem

   l    n(q)    QCUT    max X(q) W(low)/X(q) W(high)/X(q)  e(spline) 
   0      8    11.635    20.381    0.10E-03    0.33E-03    0.24E-06
   0      8    11.635    15.268    0.11E-03    0.35E-03    0.26E-06
   1      7    11.635     5.964    0.24E-03    0.31E-03    0.30E-06
   1      7    11.635     5.382    0.22E-03    0.25E-03    0.26E-06
 Optimization of the real space projectors (new method)

 maximal supplied QI-value         = 17.01
 optimisation between [QCUT,QGAM] = [ 11.57, 23.30] = [ 37.45,152.03] Ry 
 Optimized for a Real-space Cutoff    1.45 Angstroem

   l    n(q)    QCUT    max X(q) W(low)/X(q) W(high)/X(q)  e(spline) 
   1     10    11.565     4.940    0.87E-04    0.13E-03    0.13E-06
   1     10    11.565     6.253    0.13E-03    0.19E-03    0.20E-06
   0     10    11.565    37.438    0.53E-04    0.73E-05    0.79E-07
   0     10    11.565     9.606    0.27E-04    0.60E-05    0.56E-07
  PAW_PBE Fe_pv 02Aug2007               :
 energy of atom  1       EATOM=-2457.4239
 kinetic energy error for atom=    0.0062 (will be added to EATOM!!)
  PAW_PBE P 06Sep2000                   :
 energy of atom  2       EATOM= -176.0430
 kinetic energy error for atom=    0.0011 (will be added to EATOM!!)
  PAW_PBE O 08Apr2002                   :
 energy of atom  3       EATOM= -432.3788
 kinetic energy error for atom=    0.0208 (will be added to EATOM!!)
  PAW_PBE Na_pv 19Sep2006               :
 energy of atom  4       EATOM= -766.0439
 kinetic energy error for atom=    0.0019 (will be added to EATOM!!)


 POSCAR: Fe P  O  Na
  positions in cartesian coordinates
  No initial velocities read in
 exchange correlation table for  LEXCH =        8
   RHO(1)=    0.500       N(1)  =     2000
   RHO(2)=  100.500       N(2)  =     4000



--------------------------------------------------------------------------------------------------------


 ion  position               nearest neighbor table
   1  0.782  0.248  0.254-  49 1.94  53 1.96  62 2.15  63 2.18  92 2.20  57 2.22  25 2.86
   2  0.279  0.250  0.491-  50 1.93  70 1.99  80 2.07  93 2.17  59 2.17  74 2.35  30 2.87
   3  0.220  0.083  0.244-  51 1.93  55 1.97  58 2.17 128 2.17  59 2.21  61 2.22
   4  0.718  0.082  0.007-  52 1.94  72 1.96 121 2.15  63 2.18  76 2.20  78 2.22
   5  0.782  0.246  0.757-  69 1.95  65 1.96  78 2.12  79 2.18 108 2.20  73 2.30
   6  0.283  0.251  0.993-  66 1.94  54 1.98 109 2.11  75 2.19  64 2.21  58 2.24
   7  0.218  0.082  0.744-  67 1.95  71 1.99  74 2.07 144 2.15  77 2.22  75 2.24
   8  0.719  0.082  0.506-  68 1.94  56 1.97 137 2.15  60 2.20  79 2.20  62 2.23
   9  0.782  0.587  0.255-  81 1.94  85 1.96 124 2.14  89 2.17  94 2.22  95 2.22  33 2.86
  10  0.279  0.584  0.492-  82 1.93 102 1.98 106 2.07  91 2.17 125 2.18 112 2.34  38 2.87
  11  0.219  0.417  0.246-  83 1.92  87 1.95  90 2.18  93 2.19  91 2.19  64 2.20  35 2.85
  12  0.721  0.418  0.010-  84 1.92 104 1.98  95 2.15  57 2.19 110 2.19 108 2.22  40 2.87
  13  0.780  0.586  0.758-  97 1.94 101 1.96 140 2.15 105 2.16 110 2.18 111 2.32
  14  0.283  0.583  0.993-  98 1.94  86 1.99 107 2.08 141 2.19  90 2.22  96 2.24
  15  0.208  0.418  0.737- 103 2.00  99 2.05 106 2.28  80 2.33
  16  0.723  0.420  0.491- 100 1.92  88 1.98  94 2.10  92 2.16 111 2.17  73 2.29  36 2.78
  17  0.781  0.917  0.257- 113 1.94 117 1.97 126 2.17  60 2.17 127 2.21 121 2.21
  18  0.281  0.917  0.494- 114 1.93 134 1.97 123 2.16  61 2.16 138 2.22 144 2.22
  19  0.220  0.750  0.244- 115 1.93 119 1.97  96 2.17 122 2.18 125 2.20 123 2.23
  20  0.718  0.751  0.007- 116 1.94 136 1.96 127 2.15  89 2.18 142 2.20 140 2.21  48 2.87
  21  0.779  0.917  0.757- 129 1.94 133 1.97 142 2.15  76 2.16 143 2.22 137 2.22
  22  0.280  0.917  0.995- 130 1.94 118 1.97 139 2.16  77 2.16 122 2.21 128 2.21  42 2.88
  23  0.218  0.751  0.744- 131 1.95 135 1.99 112 2.07 138 2.16 139 2.22 141 2.23
  24  0.719  0.751  0.507- 132 1.93 120 1.97 143 2.16 126 2.21 105 2.22 124 2.22
  25  0.608  0.250  0.031-  54 1.54  65 1.54  63 1.58  57 1.58   1 2.86
  26  0.107  0.249  0.218-  50 1.54  53 1.54  58 1.58  64 1.58
  27  0.393  0.083  0.472-  67 1.53  56 1.54  61 1.58  59 1.59
  28  0.893  0.083  0.280-  52 1.54  55 1.54  62 1.58  60 1.59
  29  0.607  0.250  0.528-  49 1.53  70 1.54  73 1.58  79 1.59
  30  0.108  0.246  0.718-  66 1.54  69 1.55  80 1.57  74 1.58   2 2.87
  31  0.393  0.083  0.971-  51 1.54  72 1.54  75 1.58  77 1.58
  32  0.892  0.082  0.781-  71 1.53  68 1.54  76 1.58  78 1.59
  33  0.608  0.585  0.031-  86 1.53  97 1.54  89 1.59  95 1.59   9 2.86
  34  0.107  0.584  0.219-  82 1.54  85 1.54  96 1.58  90 1.58
  35  0.394  0.417  0.467-  99 1.53  88 1.55  91 1.58  93 1.58  11 2.85
  36  0.896  0.417  0.277-  87 1.53  84 1.54  92 1.58  94 1.59  16 2.78
  37  0.606  0.583  0.529- 102 1.54  81 1.54 111 1.58 105 1.59
  38  0.107  0.588  0.719-  98 1.54 101 1.55 106 1.58 112 1.58  10 2.87
  39  0.392  0.418  0.979-  83 1.53 107 1.56 104 1.57 109 1.57
  40  0.885  0.417  0.777- 103 1.51 100 1.54 110 1.59 108 1.59  12 2.87
  41  0.606  0.917  0.031- 129 1.54 118 1.54 127 1.59 121 1.59
  42  0.107  0.917  0.221- 114 1.54 117 1.54 122 1.58 128 1.58  22 2.88
  43  0.393  0.751  0.472- 131 1.53 120 1.54 123 1.58 125 1.59
  44  0.893  0.751  0.280- 116 1.54 119 1.54 126 1.59 124 1.59
  45  0.607  0.917  0.530- 113 1.54 134 1.54 143 1.58 137 1.58
  46  0.106  0.917  0.721- 130 1.54 133 1.54 144 1.58 138 1.58
  47  0.393  0.750  0.971- 115 1.54 136 1.54 141 1.58 139 1.58
  48  0.892  0.751  0.781- 135 1.53 132 1.54 142 1.59 140 1.59  20 2.87
  49  0.636  0.250  0.376-  29 1.53   1 1.94
  50  0.134  0.249  0.371-  26 1.54   2 1.93
  51  0.366  0.083  0.124-  31 1.54   3 1.93
  52  0.865  0.082  0.127-  28 1.54   4 1.94
  53  0.961  0.249  0.192-  26 1.54   1 1.96
  54  0.463  0.248  0.060-  25 1.54   6 1.98
  55  0.039  0.083  0.305-  28 1.54   3 1.97
  56  0.539  0.084  0.446-  27 1.54   8 1.97
  57  0.679  0.314  0.103-  25 1.58  12 2.19   1 2.22
  58  0.178  0.185  0.146-  26 1.58   3 2.17   6 2.24
  59  0.321  0.147  0.399-  27 1.59   2 2.17   3 2.21
  60  0.822  0.019  0.353-  28 1.59  17 2.17   8 2.20
  61  0.323  0.018  0.398-  27 1.58  18 2.16   3 2.22
  62  0.822  0.147  0.352-  28 1.58   1 2.15   8 2.23
  63  0.681  0.185  0.101-  25 1.58   4 2.18   1 2.18
  64  0.178  0.314  0.146-  26 1.58  11 2.20   6 2.21
  65  0.632  0.250  0.877-  25 1.54   5 1.96
  66  0.139  0.250  0.870-  30 1.54   6 1.94
  67  0.366  0.082  0.624-  27 1.53   7 1.95
  68  0.865  0.083  0.628-  32 1.54   8 1.94
  69  0.960  0.248  0.698-  30 1.55   5 1.95
  70  0.461  0.250  0.554-  29 1.54   2 1.99
  71  0.037  0.081  0.809-  32 1.53   7 1.99
  72  0.539  0.083  0.946-  31 1.54   4 1.96
  73  0.674  0.315  0.602-  29 1.58 145 2.29  16 2.29   5 2.30
  74  0.172  0.178  0.651-  30 1.58   7 2.07   2 2.35
  75  0.323  0.148  0.898-  31 1.58   6 2.19   7 2.24
  76  0.818  0.018  0.853-  32 1.58  21 2.16   4 2.20
  77  0.322  0.018  0.899-  31 1.58  22 2.16   7 2.22
  78  0.821  0.147  0.853-  32 1.59   5 2.12   4 2.22
  79  0.679  0.186  0.602-  29 1.59   5 2.18   8 2.20
  80  0.178  0.306  0.637-  30 1.57   2 2.07  15 2.33
  81  0.637  0.583  0.377-  37 1.54   9 1.94
  82  0.133  0.585  0.371-  34 1.54  10 1.93
  83  0.368  0.417  0.132-  39 1.53  11 1.92
  84  0.871  0.417  0.124-  36 1.54  12 1.92
  85  0.961  0.584  0.193-  34 1.54   9 1.96
  86  0.463  0.586  0.060-  33 1.53  14 1.99
  87  0.041  0.417  0.306-  36 1.53  11 1.95
  88  0.540  0.416  0.439-  35 1.55  16 1.98
  89  0.680  0.649  0.103-  33 1.59   9 2.17  20 2.18
  90  0.177  0.519  0.147-  34 1.58  11 2.18  14 2.22
  91  0.322  0.482  0.396-  35 1.58  10 2.17  11 2.19
  92  0.823  0.353  0.349-  36 1.58  16 2.16   1 2.20
  93  0.321  0.352  0.396-  35 1.58   2 2.17  11 2.19
  94  0.824  0.481  0.349-  36 1.59  16 2.10   9 2.22
  95  0.680  0.520  0.103-  33 1.59  12 2.15   9 2.22
  96  0.178  0.649  0.146-  34 1.58  19 2.17  14 2.24
  97  0.633  0.585  0.878-  33 1.54  13 1.94
  98  0.137  0.584  0.870-  38 1.54  14 1.94
  99  0.371  0.417  0.620-  35 1.53  15 2.05 145 2.22
 100  0.858  0.417  0.624-  40 1.54  16 1.92
 101  0.960  0.586  0.697-  38 1.55  13 1.96
 102  0.460  0.585  0.553-  37 1.54  10 1.98
 103  0.028  0.416  0.805-  40 1.51  15 2.00
 104  0.540  0.418  0.951-  39 1.57  12 1.98 145 2.23
 105  0.680  0.646  0.603-  37 1.59  13 2.16  24 2.22
 106  0.178  0.527  0.638-  38 1.58  10 2.07  15 2.28
 107  0.326  0.483  0.908-  39 1.56  14 2.08
 108  0.809  0.353  0.848-  40 1.59   5 2.20  12 2.22
 109  0.332  0.351  0.906-  39 1.57   6 2.11
 110  0.812  0.481  0.849-  40 1.59  13 2.18  12 2.19
 111  0.672  0.516  0.601-  37 1.58  16 2.17  13 2.32
 112  0.172  0.655  0.650-  38 1.58  23 2.07  10 2.34
 113  0.635  0.917  0.377-  45 1.54  17 1.94
 114  0.134  0.917  0.374-  42 1.54  18 1.93
 115  0.366  0.751  0.124-  47 1.54  19 1.93
 116  0.865  0.751  0.128-  44 1.54  20 1.94
 117  0.961  0.917  0.196-  42 1.54  17 1.97
 118  0.460  0.917  0.058-  41 1.54  22 1.97
 119  0.039  0.751  0.306-  44 1.54  19 1.97
 120  0.539  0.750  0.446-  43 1.54  24 1.97
 121  0.678  0.981  0.104-  41 1.59   4 2.15  17 2.21
 122  0.178  0.852  0.148-  42 1.58  19 2.18  22 2.21
 123  0.323  0.815  0.398-  43 1.58  18 2.16  19 2.23
 124  0.822  0.686  0.352-  44 1.59   9 2.14  24 2.22
 125  0.321  0.687  0.399-  43 1.59  10 2.18  19 2.20
 126  0.822  0.815  0.354-  44 1.59  17 2.17  24 2.21
 127  0.678  0.852  0.104-  41 1.59  20 2.15  17 2.21
 128  0.178  0.981  0.148-  42 1.58   3 2.17  22 2.21
 129  0.633  0.917  0.878-  41 1.54  21 1.94
 130  0.134  0.917  0.874-  46 1.54  22 1.94
 131  0.366  0.751  0.624-  43 1.53  23 1.95
 132  0.864  0.751  0.629-  48 1.54  24 1.93
 133  0.960  0.917  0.696-  46 1.54  21 1.97
 134  0.461  0.917  0.556-  45 1.54  18 1.97
 135  0.037  0.753  0.809-  48 1.53  23 1.99
 136  0.539  0.751  0.946-  47 1.54  20 1.96
 137  0.678  0.981  0.603-  45 1.58   8 2.15  21 2.22
 138  0.177  0.852  0.648-  46 1.58  23 2.16  18 2.22
 139  0.322  0.815  0.899-  47 1.58  22 2.16  23 2.22
 140  0.821  0.687  0.854-  48 1.59  13 2.15  20 2.21
 141  0.323  0.686  0.898-  47 1.58  14 2.19  23 2.23
 142  0.819  0.816  0.853-  48 1.59  21 2.15  20 2.20
 143  0.678  0.852  0.603-  45 1.58  24 2.16  21 2.22
 144  0.177  0.981  0.648-  46 1.58   7 2.15  18 2.22
 145  0.548  0.388  0.734-  99 2.22 104 2.23  73 2.29


IMPORTANT INFORMATION: All symmetrisations will be switched off!
NOSYMM: (Re-)initialisation of all symmetry stuff for point group C_1.


----------------------------------------------------------------------------------------

                                     Primitive cell                                     

  volume of cell :    1920.7920

  direct lattice vectors                    reciprocal lattice vectors
    10.406300000  0.000000000  0.000000000     0.096095634  0.000000000  0.000000000
     0.000000000 18.656100000  0.000000000     0.000000000  0.053601771  0.000000000
     0.000000000  0.000000000  9.893800000     0.000000000  0.000000000  0.101073400

  length of vectors
    10.406300000 18.656100000  9.893800000     0.096095634  0.053601771  0.101073400

  position of ions in fractional coordinates (direct lattice)
     0.782277189  0.247991856  0.254305638
     0.279051874  0.250207414  0.491400977
     0.219602899  0.083283176  0.244341806
     0.718032328  0.081660832  0.007448609
     0.781603194  0.246120284  0.757272580
     0.283250672  0.251250492  0.993466803
     0.217992848  0.082013091  0.744498500
     0.719071097  0.081940189  0.506284057
     0.782058656  0.586586380  0.254758637
     0.278995802  0.583594193  0.492180843
     0.219322978  0.417012539  0.245567647
     0.721387180  0.418386013  0.010428823
     0.780343655  0.586331073  0.757571587
     0.282701287  0.582504284  0.993105330
     0.208453512  0.418152296  0.737047189
     0.723170091  0.419786356  0.491309461
     0.781068991  0.916658036  0.256827101
     0.280594455  0.916662282  0.494075095
     0.219714986  0.749922003  0.244361349
     0.718276687  0.751485142  0.007273604
     0.779462318  0.916607677  0.757456709
     0.280396914  0.916642771  0.994601283
     0.217932567  0.751346958  0.744454158
     0.718910547  0.751046634  0.506657425
     0.607840366  0.249531853  0.031032746
     0.107415951  0.249255586  0.217899389
     0.392741110  0.082769237  0.471703249
     0.893269613  0.082789228  0.279748628
     0.607098051  0.249513480  0.528118747
     0.107634804  0.245659179  0.718413469
     0.392526245  0.083097154  0.971184529
     0.891811045  0.081973271  0.781072436
     0.607647501  0.584577174  0.031169592
     0.107183494  0.584311479  0.218566717
     0.393572474  0.417013998  0.467279202
     0.896116718  0.416575273  0.277073762
     0.606154862  0.582781007  0.528852123
     0.106604193  0.588086771  0.718504172
     0.391735613  0.417550867  0.978748990
     0.884943736  0.416915618  0.776958672
     0.605914556  0.916671970  0.030891870
     0.107094766  0.916709991  0.220982457
     0.392770693  0.750785994  0.471748198
     0.893387835  0.750868243  0.279990109
     0.606588866  0.916684999  0.529828939
     0.106121176  0.916776452  0.721092738
     0.392586069  0.750389267  0.971105828
     0.891776984  0.751499804  0.781285703
     0.636469252  0.249523420  0.376255354
     0.133537553  0.248991357  0.370654025
     0.365556534  0.082871185  0.123995341
     0.865130854  0.082174995  0.127314542
     0.961208811  0.249471018  0.191957422
     0.462856215  0.247825160  0.059661889
     0.039037372  0.082897241  0.305294233
     0.539021225  0.083587556  0.445564587
     0.679475118  0.314087224  0.102886502
     0.178422944  0.184827095  0.146037074
     0.321183271  0.147132019  0.398986040
     0.821988240  0.018615215  0.353484557
     0.322539189  0.018260160  0.398146868
     0.822423277  0.147497459  0.351897591
     0.681217923  0.185185766  0.101432313
     0.178141733  0.314132540  0.146423726
     0.632088627  0.250499764  0.877027278
     0.138599350  0.250434458  0.870104886
     0.366287073  0.081946770  0.624260070
     0.864506741  0.082670145  0.628351010
     0.960316864  0.247879315  0.697719622
     0.461106054  0.249643848  0.554080663
     0.036707863  0.080589552  0.809356989
     0.538838330  0.082768770  0.946155005
     0.673857523  0.315155771  0.601551302
     0.172290155  0.178043869  0.650681911
     0.322822919  0.147584424  0.898283468
     0.818470035  0.018104062  0.853244098
     0.321713133  0.018408982  0.898930789
     0.820582040  0.146877677  0.853224393
     0.679449353  0.185933632  0.602389513
     0.178436601  0.306499116  0.636976661
     0.636746560  0.583124882  0.376833668
     0.133392766  0.584702793  0.371278088
     0.368342797  0.416676055  0.131667016
     0.870714211  0.416909045  0.124206293
     0.960991610  0.584392504  0.192528009
     0.462694047  0.585618345  0.059520422
     0.040730498  0.416539177  0.306493138
     0.539966122  0.416305568  0.438860689
     0.680438146  0.648748580  0.103348838
     0.177408048  0.519252857  0.147357225
     0.321701090  0.481501193  0.396065897
     0.823306988  0.352541156  0.348729782
     0.321354897  0.352443882  0.396118705
     0.824183996  0.481353487  0.348594424
     0.679917587  0.519991595  0.102922468
     0.178462345  0.648584620  0.146361988
     0.633412348  0.584841740  0.878135702
     0.137221053  0.583765659  0.870291512
     0.371285268  0.416899574  0.620336651
     0.857863352  0.417118225  0.623790328
     0.959508875  0.585786696  0.697154282
     0.460224684  0.584602760  0.552763242
     0.027862539  0.415986478  0.805228793
     0.539966888  0.418329668  0.951299033
     0.679545445  0.646058133  0.603158597
     0.177621920  0.527005313  0.637678371
     0.326440859  0.483237530  0.908451569
     0.809190611  0.353018733  0.847778178
     0.331619642  0.350800890  0.905906194
     0.812202744  0.481391310  0.849285901
     0.671840690  0.516422190  0.601023107
     0.172007624  0.655394800  0.650227491
     0.634586049  0.916702568  0.377330510
     0.134237054  0.916721621  0.373663823
     0.365642317  0.750530565  0.123931122
     0.865303175  0.751228164  0.127596774
     0.960915622  0.916730204  0.195536263
     0.460356802  0.916685623  0.057606031
     0.039104813  0.750538350  0.305643155
     0.539129089  0.749700175  0.445849372
     0.677514768  0.981033889  0.103602202
     0.177854922  0.852251220  0.148262181
     0.322935390  0.815445737  0.398297364
     0.822191635  0.686234448  0.352470252
     0.320829910  0.686686295  0.398662123
     0.822110995  0.815018873  0.353609119
     0.677616575  0.852357296  0.103534772
     0.177834083  0.981191747  0.148282316
     0.632707992  0.916739366  0.878193345
     0.134277173  0.916739246  0.873527261
     0.366233093  0.751499609  0.624283706
     0.864124278  0.750554206  0.628551080
     0.959958176  0.916805507  0.696120472
     0.460906014  0.916769554  0.555742626
     0.036808491  0.753047799  0.809048165
     0.538865551  0.750645164  0.946004583
     0.677645621  0.981122189  0.602631345
     0.176959168  0.852416411  0.647883131
     0.321771712  0.815135357  0.898992112
     0.820774612  0.686887246  0.854010978
     0.322511932  0.686021870  0.898125089
     0.818759924  0.815641928  0.853059954
     0.677564397  0.852241051  0.602680247
     0.176881090  0.981195388  0.647993044
     0.548432003  0.387991704  0.733601341

  ion indices of the primitive-cell ions
   primitive index   ion index
                 1           1
                 2           2
                 3           3
                 4           4
                 5           5
                 6           6
                 7           7
                 8           8
                 9           9
                10          10
                11          11
                12          12
                13          13
                14          14
                15          15
                16          16
                17          17
                18          18
                19          19
                20          20
                21          21
                22          22
                23          23
                24          24
                25          25
                26          26
                27          27
                28          28
                29          29
                30          30
                31          31
                32          32
                33          33
                34          34
                35          35
                36          36
                37          37
                38          38
                39          39
                40          40
                41          41
                42          42
                43          43
                44          44
                45          45
                46          46
                47          47
                48          48
                49          49
                50          50
                51          51
                52          52
                53          53
                54          54
                55          55
                56          56
                57          57
                58          58
                59          59
                60          60
                61          61
                62          62
                63          63
                64          64
                65          65
                66          66
                67          67
                68          68
                69          69
                70          70
                71          71
                72          72
                73          73
                74          74
                75          75
                76          76
                77          77
                78          78
                79          79
                80          80
                81          81
                82          82
                83          83
                84          84
                85          85
                86          86
                87          87
                88          88
                89          89
                90          90
                91          91
                92          92
                93          93
                94          94
                95          95
                96          96
                97          97
                98          98
                99          99
               100         100
               101         101
               102         102
               103         103
               104         104
               105         105
               106         106
               107         107
               108         108
               109         109
               110         110
               111         111
               112         112
               113         113
               114         114
               115         115
               116         116
               117         117
               118         118
               119         119
               120         120
               121         121
               122         122
               123         123
               124         124
               125         125
               126         126
               127         127
               128         128
               129         129
               130         130
               131         131
               132         132
               133         133
               134         134
               135         135
               136         136
               137         137
               138         138
               139         139
               140         140
               141         141
               142         142
               143         143
               144         144
               145         145

----------------------------------------------------------------------------------------



 KPOINTS: KPOINTS created by Atomic Simulation Env

Automatic generation of k-mesh.
 Grid dimensions read from file:
 generate k-points for:    3    1    3

 Generating k-lattice:

  Cartesian coordinates                     Fractional coordinates (reciprocal lattice)
     0.032031878  0.000000000  0.000000000     0.333333333  0.000000000  0.000000000
     0.000000000  0.053601771  0.000000000     0.000000000  1.000000000  0.000000000
     0.000000000  0.000000000  0.033691133     0.000000000  0.000000000  0.333333333

  Length of vectors
     0.032031878  0.053601771  0.033691133

  Shift w.r.t. Gamma in fractional coordinates (k-lattice)
     0.000000000  0.000000000  0.000000000

 
 Subroutine IBZKPT returns following result:
 ===========================================
 
 Found      5 irreducible k-points:
 
 Following reciprocal coordinates:
            Coordinates               Weight
  0.000000  0.000000  0.000000      1.000000
  0.333333  0.000000  0.000000      2.000000
  0.000000  0.000000  0.333333      2.000000
  0.333333  0.000000  0.333333      2.000000
 -0.333333  0.000000  0.333333      2.000000
 
 Following cartesian coordinates:
            Coordinates               Weight
  0.000000  0.000000  0.000000      1.000000
  0.032032  0.000000  0.000000      2.000000
  0.000000  0.000000  0.033691      2.000000
  0.032032  0.000000  0.033691      2.000000
 -0.032032  0.000000  0.033691      2.000000
 


--------------------------------------------------------------------------------------------------------




 Dimension of arrays:
   k-points           NKPTS =      5   k-points in BZ     NKDIM =      5   number of bands    NBANDS=    696
   number of dos      NEDOS =    301   number of ions     NIONS =    145
   non local maximal  LDIM  =      6   non local SUM 2l+1 LMDIM =     18
   total plane-waves  NPLWV = 896000
   max r-space proj   IRMAX =   5954   max aug-charges    IRDMAX=  14393
   dimension x,y,z NGX =    80 NGY =  140 NGZ =   80
   dimension x,y,z NGXF=   160 NGYF=  280 NGZF=  160
   support grid    NGXF=   160 NGYF=  280 NGZF=  160
   ions per type =              24  24  96   1
   NGX,Y,Z   is equivalent  to a cutoff of  12.78, 12.48, 13.44 a.u.
   NGXF,Y,Z  is equivalent  to a cutoff of  25.56, 24.95, 26.88 a.u.

 SYSTEM =  unknown system                          
 POSCAR =  Fe P  O  Na                             

 Startparameter for this run:
   NWRITE =      2    write-flag & timer
   PREC   = accura    normal or accurate (medium, high low for compatibility)
   ISTART =      1    job   : 0-new  1-cont  2-samecut
   ICHARG =      0    charge: 1-file 2-atom 10-const
   ISPIN  =      2    spin polarized calculation?
   LNONCOLLINEAR =      F non collinear calculations
   LSORBIT =      F    spin-orbit coupling
   INIWAV =      1    electr: 0-lowe 1-rand  2-diag
   LASPH  =      T    aspherical Exc in radial PAW
 Electronic Relaxation 1
   ENCUT  =  520.0 eV  38.22 Ry    6.18 a.u.  19.35 34.69 18.40*2*pi/ulx,y,z
   ENINI  =  520.0     initial cutoff
   ENAUG  =  605.4 eV  augmentation charge cutoff
   NELM   =    300;   NELMIN=  8; NELMDL=  0     # of ELM steps 
   EDIFF  = 0.1E-05   stopping-criterion for ELM
   LREAL  =      T    real-space projection
   NLSPLINE    = F    spline interpolate recip. space projectors
   LCOMPAT=      F    compatible to vasp.4.4
   GGA_COMPAT  = T    GGA compatible to vasp.4.4-vasp.4.6
   LMAXPAW     = -100 max onsite density
   LMAXMIX     =    4 max onsite mixed and CHGCAR
   VOSKOWN=      0    Vosko Wilk Nusair interpolation
   ROPT   =   -0.00025  -0.00025  -0.00025  -0.00025
 Ionic relaxation
   EDIFFG = -.2E-01   stopping-criterion for IOM
   NSW    =      1    number of steps for IOM
   NBLOCK =      1;   KBLOCK =      1    inner block; outer block 
   IBRION =      2    ionic relax: 0-MD 1-quasi-New 2-CG
   NFREE  =      1    steps in history (QN), initial steepest desc. (CG)
   ISIF   =      2    stress and relaxation
   IWAVPR =     11    prediction:  0-non 1-charg 2-wave 3-comb
   ISYM   =      0    0-nonsym 1-usesym 2-fastsym
   LCORR  =      T    Harris-Foulkes like correction to forces

   POTIM  = 0.5000    time-step for ionic-motion
   TEIN   =    0.0    initial temperature
   TEBEG  =    0.0;   TEEND  =   0.0 temperature during run
   SMASS  =  -3.00    Nose mass-parameter (am)
   estimated Nose-frequenzy (Omega)   =  0.10E-29 period in steps = 0.13E+47 mass=  -0.247E-26a.u.
   SCALEE = 1.0000    scale energy and forces
   NPACO  =    256;   APACO  = 10.0  distance and # of slots for P.C.
   PSTRESS=    0.0 pullay stress

  Mass of Ions in am
   POMASS =  55.85 30.97 16.00 22.99
  Ionic Valenz
   ZVAL   =  14.00  5.00  6.00  7.00
  Atomic Wigner-Seitz radii
   RWIGS  =  -1.00 -1.00 -1.00 -1.00
  virtual crystal weights 
   VCA    =   1.00  1.00  1.00  1.00
   NELECT =    1039.0000    total number of electrons
   NUPDOWN=     119.0000    fix difference up-down

 DOS related values:
   EMIN   =  10.00;   EMAX   =-10.00  energy-range for DOS
   EFERMI =   0.00;   METHOD = LEGACY      
   ISMEAR =     0;   SIGMA  =   0.05  broadening in eV -4-tet -1-fermi 0-gaus

 Electronic relaxation 2 (details)
   IALGO  =     58    algorithm
   LDIAG  =      T    sub-space diagonalisation (order eigenvalues)
   LSUBROT=      F    optimize rotation matrix (better conditioning)
   TURBO    =      0    0=normal 1=particle mesh
   IRESTART =      0    0=no restart 2=restart with 2 vectors
   NREBOOT  =      0    no. of reboots
   NMIN     =      0    reboot dimension
   EREF     =   0.00    reference energy to select bands
   IMIX   =      4    mixing-type and parameters
     AMIX     =   0.40;   BMIX     =  1.00
     AMIX_MAG =   1.60;   BMIX_MAG =  1.00
     AMIN     =   0.10
     WC   =   100.;   INIMIX=   1;  MIXPRE=   1;  MAXMIX= -45

 Intra band minimization:
   WEIMIN = 0.0010     energy-eigenvalue tresh-hold
   EBREAK =  0.36E-09  absolut break condition
   DEPER  =   0.30     relativ break condition  

   TIME   =   0.05     timestep for ELM

  volume/ion in A,a.u.               =      13.25        89.39
  Fermi-wavevector in a.u.,A,eV,Ry     =   1.333890  2.520686 24.208324  1.779262
  Thomas-Fermi vector in A             =   2.462713

 Write flags
   LWAVE        =      T    write WAVECAR
   LDOWNSAMPLE  =      F    k-point downsampling of WAVECAR
   LCHARG       =      T    write CHGCAR
   LVTOT        =      F    write LOCPOT, total local potential
   LVHAR        =      F    write LOCPOT, Hartree potential only
   LELF         =      F    write electronic localiz. function (ELF)
   LORBIT       =     12    0 simple, 1 ext, 2 COOP (PROOUT), +10 PAW based schemes


 Dipole corrections
   LMONO  =      F    monopole corrections only (constant potential shift)
   LDIPOL =      F    correct potential (dipole corrections)
   IDIPOL =      0    1-x, 2-y, 3-z, 4-all directions 
   EPSILON=  1.0000000 bulk dielectric constant

 LDA+U is selected, type is set to LDAUTYPE =  2
   angular momentum for each species LDAUL =     2   -1   -1   -1
   U (eV)           for each species LDAUU =   5.3  0.0  0.0  0.0
   J (eV)           for each species LDAUJ =   0.0  0.0  0.0  0.0
 Exchange correlation treatment:
   GGA     =    PE    GGA type
   LEXCH   =     8    internal setting for exchange type
   LIBXC   =     F    Libxc                    
   VOSKOWN =     0    Vosko Wilk Nusair interpolation
   LHFCALC =     F    Hartree Fock is set to
   LHFONE  =     F    Hartree Fock one center treatment
   AEXX    =    0.0000 exact exchange contribution

 Linear response parameters
   LEPSILON=     F    determine dielectric tensor
   LRPA    =     F    only Hartree local field effects (RPA)
   LNABLA  =     F    use nabla operator in PAW spheres
   LVEL    =     F    velocity operator in full k-point grid
   CSHIFT  =0.1000    complex shift for real part using Kramers Kronig
   OMEGAMAX=  -1.0    maximum frequency
   DEG_THRESHOLD= 0.2000000E-02 threshold for treating states as degnerate
   RTIME   =   -0.100 relaxation time in fs
  (WPLASMAI=    0.000 imaginary part of plasma frequency in eV, 0.658/RTIME)
   DFIELD  = 0.0000000 0.0000000 0.0000000 field for delta impulse in time

  Optional k-point grid parameters
   LKPOINTS_OPT  =     F    use optional k-point grid
   KPOINTS_OPT_MODE=     1    mode for optional k-point grid

 Orbital magnetization related:
   ORBITALMAG=     F  switch on orbital magnetization
   LCHIMAG   =     F  perturbation theory with respect to B field
   DQ        =  0.001000  dq finite difference perturbation B field
   LLRAUG    =     F  two centre corrections for induced B field
   LBONE     =     F  B-component reconstruction in AE one-centre
   LVGVCALC  =     T  calculate vGv susceptibility
   LVGVAPPL  =     F  apply vGv susceptibility instead of pGv for G=0

 Random number generation:
   RANDOM_GENERATOR = DEFAULT
   PCG_SEED         = not used


--------------------------------------------------------------------------------------------------------


 conjugate gradient relaxation of ions
 charge density and potential will be updated during run
 spin polarized calculation
 Conjugate gradient for all bands (Freysoldt, et al. PRB 79, 241103 (2009))
 preconditioned conjugated gradient                                        
 perform sub-space diagonalisation
    before iterative eigenvector-optimisation
 modified Broyden-mixing scheme, WC =      100.0
 initial mixing is a Kerker type mixing with AMIX =  0.4000 and BMIX =      1.0000
 Hartree-type preconditioning will be used
 using additional bands          176
 real space projection scheme for non local part
 use partial core corrections
 no Harris-corrections to forces 
 use gradient corrections 
 use of overlap-Matrix (Vanderbilt PP)
 Gauss-broadening in eV      SIGMA  =   0.05


--------------------------------------------------------------------------------------------------------


  energy-cutoff  :      520.00
  volume of cell :     1920.79
      direct lattice vectors                 reciprocal lattice vectors
    10.406300000  0.000000000  0.000000000     0.096095634  0.000000000  0.000000000
     0.000000000 18.656100000  0.000000000     0.000000000  0.053601771  0.000000000
     0.000000000  0.000000000  9.893800000     0.000000000  0.000000000  0.101073400

  length of vectors
    10.406300000 18.656100000  9.893800000     0.096095634  0.053601771  0.101073400



 old parameters found on file WAVECAR:
  energy-cutoff  :      520.00
  volume of cell :     1920.79
      direct lattice vectors                 reciprocal lattice vectors
    10.406300000  0.000000000  0.000000000     0.096095634  0.000000000  0.000000000
     0.000000000 18.656100000  0.000000000     0.000000000  0.053601771  0.000000000
     0.000000000  0.000000000  9.893800000     0.000000000  0.000000000  0.101073400

  length of vectors


 k-points in units of 2pi/SCALE and weight: KPOINTS created by Atomic Simulation Env
   0.00000000  0.00000000  0.00000000       0.111
   0.03203188  0.00000000  0.00000000       0.222
   0.00000000  0.00000000  0.03369113       0.222
   0.03203188  0.00000000  0.03369113       0.222
  -0.03203188  0.00000000  0.03369113       0.222

 k-points in reciprocal lattice and weights: KPOINTS created by Atomic Simulation Env
   0.00000000  0.00000000  0.00000000       0.111
   0.33333333  0.00000000  0.00000000       0.222
   0.00000000  0.00000000  0.33333333       0.222
   0.33333333  0.00000000  0.33333333       0.222
  -0.33333333  0.00000000  0.33333333       0.222

 position of ions in fractional coordinates (direct lattice) 
   0.78227719  0.24799186  0.25430564
   0.27905187  0.25020741  0.49140098
   0.21960290  0.08328318  0.24434181
   0.71803233  0.08166083  0.00744861
   0.78160319  0.24612028  0.75727258
   0.28325067  0.25125049  0.99346680
   0.21799285  0.08201309  0.74449850
   0.71907110  0.08194019  0.50628406
   0.78205866  0.58658638  0.25475864
   0.27899580  0.58359419  0.49218084
   0.21932298  0.41701254  0.24556765
   0.72138718  0.41838601  0.01042882
   0.78034366  0.58633107  0.75757159
   0.28270129  0.58250428  0.99310533
   0.20845351  0.41815230  0.73704719
   0.72317009  0.41978636  0.49130946
   0.78106899  0.91665804  0.25682710
   0.28059445  0.91666228  0.49407510
   0.21971499  0.74992200  0.24436135
   0.71827669  0.75148514  0.00727360
   0.77946232  0.91660768  0.75745671
   0.28039691  0.91664277  0.99460128
   0.21793257  0.75134696  0.74445416
   0.71891055  0.75104663  0.50665742
   0.60784037  0.24953185  0.03103275
   0.10741595  0.24925559  0.21789939
   0.39274111  0.08276924  0.47170325
   0.89326961  0.08278923  0.27974863
   0.60709805  0.24951348  0.52811875
   0.10763480  0.24565918  0.71841347
   0.39252625  0.08309715  0.97118453
   0.89181105  0.08197327  0.78107244
   0.60764750  0.58457717  0.03116959
   0.10718349  0.58431148  0.21856672
   0.39357247  0.41701400  0.46727920
   0.89611672  0.41657527  0.27707376
   0.60615486  0.58278101  0.52885212
   0.10660419  0.58808677  0.71850417
   0.39173561  0.41755087  0.97874899
   0.88494374  0.41691562  0.77695867
   0.60591456  0.91667197  0.03089187
   0.10709477  0.91670999  0.22098246
   0.39277069  0.75078599  0.47174820
   0.89338783  0.75086824  0.27999011
   0.60658887  0.91668500  0.52982894
   0.10612118  0.91677645  0.72109274
   0.39258607  0.75038927  0.97110583
   0.89177698  0.75149980  0.78128570
   0.63646925  0.24952342  0.37625535
   0.13353755  0.24899136  0.37065402
   0.36555653  0.08287118  0.12399534
   0.86513085  0.08217499  0.12731454
   0.96120881  0.24947102  0.19195742
   0.46285621  0.24782516  0.05966189
   0.03903737  0.08289724  0.30529423
   0.53902122  0.08358756  0.44556459
   0.67947512  0.31408722  0.10288650
   0.17842294  0.18482710  0.14603707
   0.32118327  0.14713202  0.39898604
   0.82198824  0.01861521  0.35348456
   0.32253919  0.01826016  0.39814687
   0.82242328  0.14749746  0.35189759
   0.68121792  0.18518577  0.10143231
   0.17814173  0.31413254  0.14642373
   0.63208863  0.25049976  0.87702728
   0.13859935  0.25043446  0.87010489
   0.36628707  0.08194677  0.62426007
   0.86450674  0.08267015  0.62835101
   0.96031686  0.24787931  0.69771962
   0.46110605  0.24964385  0.55408066
   0.03670786  0.08058955  0.80935699
   0.53883833  0.08276877  0.94615500
   0.67385752  0.31515577  0.60155130
   0.17229015  0.17804387  0.65068191
   0.32282292  0.14758442  0.89828347
   0.81847004  0.01810406  0.85324410
   0.32171313  0.01840898  0.89893079
   0.82058204  0.14687768  0.85322439
   0.67944935  0.18593363  0.60238951
   0.17843660  0.30649912  0.63697666
   0.63674656  0.58312488  0.37683367
   0.13339277  0.58470279  0.37127809
   0.36834280  0.41667606  0.13166702
   0.87071421  0.41690904  0.12420629
   0.96099161  0.58439250  0.19252801
   0.46269405  0.58561835  0.05952042
   0.04073050  0.41653918  0.30649314
   0.53996612  0.41630557  0.43886069
   0.68043815  0.64874858  0.10334884
   0.17740805  0.51925286  0.14735723
   0.32170109  0.48150119  0.39606590
   0.82330699  0.35254116  0.34872978
   0.32135490  0.35244388  0.39611871
   0.82418400  0.48135349  0.34859442
   0.67991759  0.51999159  0.10292247
   0.17846235  0.64858462  0.14636199
   0.63341235  0.58484174  0.87813570
   0.13722105  0.58376566  0.87029151
   0.37128527  0.41689957  0.62033665
   0.85786335  0.41711822  0.62379033
   0.95950887  0.58578670  0.69715428
   0.46022468  0.58460276  0.55276324
   0.02786254  0.41598648  0.80522879
   0.53996689  0.41832967  0.95129903
   0.67954544  0.64605813  0.60315860
   0.17762192  0.52700531  0.63767837
   0.32644086  0.48323753  0.90845157
   0.80919061  0.35301873  0.84777818
   0.33161964  0.35080089  0.90590619
   0.81220274  0.48139131  0.84928590
   0.67184069  0.51642219  0.60102311
   0.17200762  0.65539480  0.65022749
   0.63458605  0.91670257  0.37733051
   0.13423705  0.91672162  0.37366382
   0.36564232  0.75053056  0.12393112
   0.86530317  0.75122816  0.12759677
   0.96091562  0.91673020  0.19553626
   0.46035680  0.91668562  0.05760603
   0.03910481  0.75053835  0.30564316
   0.53912909  0.74970017  0.44584937
   0.67751477  0.98103389  0.10360220
   0.17785492  0.85225122  0.14826218
   0.32293539  0.81544574  0.39829736
   0.82219163  0.68623445  0.35247025
   0.32082991  0.68668629  0.39866212
   0.82211099  0.81501887  0.35360912
   0.67761658  0.85235730  0.10353477
   0.17783408  0.98119175  0.14828232
   0.63270799  0.91673937  0.87819335
   0.13427717  0.91673925  0.87352726
   0.36623309  0.75149961  0.62428371
   0.86412428  0.75055421  0.62855108
   0.95995818  0.91680551  0.69612047
   0.46090601  0.91676955  0.55574263
   0.03680849  0.75304780  0.80904816
   0.53886555  0.75064516  0.94600458
   0.67764562  0.98112219  0.60263135
   0.17695917  0.85241641  0.64788313
   0.32177171  0.81513536  0.89899211
   0.82077461  0.68688725  0.85401098
   0.32251193  0.68602187  0.89812509
   0.81875992  0.81564193  0.85305995
   0.67756440  0.85224105  0.60268025
   0.17688109  0.98119539  0.64799304
   0.54843200  0.38799170  0.73360134

 position of ions in cartesian coordinates  (Angst):
   8.14061111  4.62656087  2.51604912
   2.90389752  4.66789453  4.86182299
   2.28525365  1.55373926  2.41746896
   7.47205981  1.52347265  0.07369505
   8.13359732  4.59164464  7.49230346
   2.94759146  4.68735431  9.82916185
   2.26849897  1.53004443  7.36591925
   7.48286955  1.52868437  5.00907321
   8.13833699 10.94341417  2.52053100
   2.90331401 10.88759162  4.86953882
   2.28234071  7.77982763  2.42959719
   7.50697141  7.80545130  0.10318069
   8.12049018 10.93865112  7.49526177
   2.94187440 10.86725818  9.82558551
   2.16922978  7.80109104  7.29219748
   7.52552491  7.83157623  4.86091755
   8.12803824 17.10126398  2.54099597
   2.91995007 17.10134320  4.88828018
   2.28642006 13.99061988  2.41766232
   7.47460269 14.01978197  0.07196358
   8.11131872 17.10032448  7.49412519
   2.91789441 17.10097919  9.84038618
   2.26787167 14.01720399  7.36548055
   7.48119882 14.01160112  5.01276723
   6.32536920  4.65529120  0.30703179
   1.11780261  4.65013715  2.15585297
   4.08698181  1.54415117  4.66693760
   9.29563158  1.54452411  2.76777698
   6.31764445  4.65494844  5.22510126
   1.12008006  4.58304221  7.10783918
   4.08474587  1.55026881  9.60870550
   9.28045328  1.52930155  7.72777447
   6.32336219 10.90593022  0.30838571
   1.11538360 10.90097339  2.16245539
   4.09563323  7.77985484  4.62316697
   9.32525940  7.77166996  2.74131239
   6.30782934 10.87242074  5.23235713
   1.10935522 10.97140561  7.10873658
   4.07651831  7.78987073  9.68354676
   9.20899000  7.77801947  7.68707371
   6.30532865 17.10152394  0.30563798
   1.11446026 17.10223326  2.18635623
   4.08728966 14.00673859  4.66738232
   9.29686183 14.00827303  2.77016614
   6.31234571 17.10176700  5.24202156
   1.10432879 17.10347316  7.13434733
   4.08536841 13.99933720  9.60792684
   9.28009883 14.02005550  7.72988449
   6.62328997  4.65513388  3.72259522
   1.38963184  4.64520765  3.66717679
   3.80409096  1.54605311  1.22678510
   9.00281120  1.53306492  1.25962462
  10.00262725  4.65415626  1.89918834
   4.81662063  4.62345097  0.59028280
   0.40623461  1.54653921  3.02052008
   5.60921657  1.55941781  4.40832691
   7.07082192  5.85964267  1.01793847
   1.85672268  3.44815277  1.44486160
   3.34232948  2.74490966  3.94748808
   8.55385622  0.34728731  3.49730551
   3.35643957  0.34066337  3.93918549
   8.55838334  2.75172735  3.48160439
   7.08895807  3.45484417  1.00355102
   1.85379632  5.86048808  1.44868706
   6.57770388  4.67334865  8.67713249
   1.44230642  4.67213029  8.60864372
   3.81169316  1.52880714  6.17630428
   8.99631650  1.54230250  6.21677922
   9.99334538  4.62446128  6.90309840
   4.79840793  4.65738060  5.48196327
   0.38199304  1.50348674  8.00761618
   5.60731331  1.54414246  9.36106838
   7.01236354  5.87957758  5.95162828
   1.79290303  3.32160423  6.43771670
   3.35939214  2.75334977  8.88743697
   8.51724473  0.33775119  8.44182645
   3.34784338  0.34343981  8.89384144
   8.53922288  2.74016464  8.44163150
   7.07055380  3.46879643  5.95992136
   1.85686480  5.71807815  6.30211968
   6.62617572 10.87883610  3.72831695
   1.38812514 10.90827377  3.67335115
   3.83308564  7.77355016  1.30268713
   9.06091329  7.77789683  1.22887223
  10.00036699 10.90248499  1.90483362
   4.81493306 10.92535441  0.58888315
   0.42385378  7.77099654  3.03238181
   5.61904946  7.76663830  4.34199988
   7.08084348 12.10311838  1.02251274
   1.84616137  9.68723322  1.45792291
   3.34771806  8.98293441  3.91859677
   8.56757951  6.57704305  3.45026272
   3.34411546  6.57522831  3.91911925
   8.57670591  8.98017879  3.44892352
   7.07542638  9.70101519  1.01829432
   1.85713271 12.10005952  1.44807624
   6.59147891 10.91086599  8.68809901
   1.42796344 10.89079051  8.61049016
   3.86370588  7.77772015  6.13748676
   8.92718340  7.78179931  6.17165675
   9.98493721 10.92849518  6.89750504
   4.78923613 10.90640756  5.46892896
   0.28994594  7.76068533  7.96677263
   5.61905742  7.80440012  9.41196237
   7.07155376 12.05292514  5.96753052
   1.84838699  9.83186383  6.30906227
   3.39704151  9.01532769  8.98803813
   8.42068025  6.58595278  8.38774774
   3.45093348  6.54457649  8.96285470
   8.45202542  8.98088442  8.40266484
   6.99137577  9.63442403  5.94640242
   1.78996294 12.22711093  6.43322075
   6.60369281 17.10209478  3.73323260
   1.39691106 17.10245023  3.69695513
   3.80498364 14.00197327  1.22614973
   9.00460443 14.01498775  1.26241696
   9.99957623 17.10261035  1.93459668
   4.79061098 17.10177865  0.56994255
   0.40693641 14.00211851  3.02397225
   5.61033904 13.98648143  4.41114451
   7.05042193 18.30226633  1.02501946
   1.85081168 15.89968398  1.46687637
   3.36056255 15.21303722  3.94067446
   8.55597281 12.80245849  3.48727018
   3.33865229 12.81088819  3.94428331
   8.55513365 15.20507359  3.49853790
   7.05148137 15.90166295  1.02435233
   1.85059481 18.30521135  1.46707558
   6.58414918 17.10278128  8.68866932
   1.39732855 17.10277905  8.64250401
   3.81113143 14.02005186  6.17653813
   8.99233647 14.00241432  6.21875868
   9.98961276 17.10401521  6.88727672
   4.79632625 17.10334447  5.49840639
   0.38304020 14.04893503  8.00456073
   5.60759658 14.00411124  9.35958014
   7.05178362 18.30391367  5.96231401
   1.84149019 15.90276581  6.41002612
   3.34845297 15.20724672  8.89444816
   8.54122684 12.81463715  8.44941381
   3.35615592 12.79849262  8.88587001
   8.52026140 15.21669737  8.44000457
   7.05093838 15.89949428  5.96279783
   1.84067768 18.30527929  6.41111358
   5.70714795  7.23841203  7.25810495



--------------------------------------------------------------------------------------------------------


 k-point   1 :   0.0000 0.0000 0.0000  plane waves:   51751
 k-point   2 :   0.3333 0.0000 0.0000  plane waves:   51719
 k-point   3 :   0.0000 0.0000 0.3333  plane waves:   51701
 k-point   4 :   0.3333 0.0000 0.3333  plane waves:   51716
 k-point   5 :  -0.3333 0.0000 0.3333  plane waves:   51716

 maximum and minimum number of plane-waves per node :     12949    12909

 maximum number of plane-waves:     51751
 maximum index in each direction: 
   IXMAX=   19   IYMAX=   34   IZMAX=   18
   IXMIN=  -19   IYMIN=  -34   IZMIN=  -18


 real space projection operators:
  total allocation   :      41641.34 KBytes
  max/ min on nodes  :      10445.61      10370.92


 parallel 3D FFT for wavefunctions:
    minimum data exchange during FFTs selected (reduces bandwidth)
 parallel 3D FFT for charge:
    minimum data exchange during FFTs selected (reduces bandwidth)


 total amount of memory used by VASP MPI-rank0   280306. kBytes
=======================================================================

   base      :      30000. kBytes
   nonlr-proj:      27488. kBytes
   fftplans  :       9556. kBytes
   grid      :      26700. kBytes
   one-center:       1150. kBytes
   wavefun   :     185412. kBytes

     INWAV:  cpu time     43.9657: real time     68.6802
 Broyden mixing: mesh for mixing (old mesh)
   NGX = 39   NGY = 69   NGZ = 37
  (NGX  =160   NGY  =280   NGZ  =160)
  gives a total of  99567 points

 charge density for first step will be calculated from the start-wavefunctions


--------------------------------------------------------------------------------------------------------


 Maximum index for non-local projection operator         1445
 Maximum index for augmentation-charges          698 (set IRDMAX)


--------------------------------------------------------------------------------------------------------


 initial charge from wavefunction
 First call to EWALD:  gamma=   0.143
 Maximum number of real-space cells 3x 2x 3
 Maximum number of reciprocal cells 2x 4x 2

    FEWALD:  cpu time      0.0059: real time      0.0060


--------------------------------------- Ionic step        1  -------------------------------------------




--------------------------------------- Iteration      1(   1)  ---------------------------------------


    POTLOK:  cpu time      0.1160: real time      0.1170
    SETDIJ:  cpu time      0.4348: real time      0.4371
    TRIAL :  cpu time      9.1585: real time      9.2259
    CORREC:  cpu time      9.6797: real time      9.7482
    CHARGE:  cpu time      0.1860: real time      0.1880
    --------------------------------------------
      LOOP:  cpu time     19.6056: real time     19.7755

 eigenvalue-minimisations  :     0
 total energy-change (2. order) :-0.1016989E+04  (-0.1937665E-01)
 number of electron    1039.0000058 magnetization     119.0000011
 augmentation part      257.1514535 magnetization      80.6975272

 Free energy of the ion-electron system (eV)
  ---------------------------------------------------
  alpha Z        PSCENC =      2648.81395470
  Ewald energy   TEWEN  =    -57944.31259721
  -Hartree energ DENC   =    -40783.01985710
  -exchange      EXHF   =         0.00000000
  -V(xc)+E(xc)   XCENC  =      4587.18821695
  PAW double counting   =    154091.71539755  -156152.47285929
  entropy T*S    EENTRO =        -0.00000000
  eigenvalues    EBANDS =    -12940.34241722
  atomic energy  EATOM  =    105475.44126576
  ---------------------------------------------------
  free energy    TOTEN  =     -1016.98889586 eV

  energy without entropy =    -1016.98889586  energy(sigma->0) =    -1016.98889586


--------------------------------------------------------------------------------------------------------




--------------------------------------- Iteration      1(   2)  ---------------------------------------


    POTLOK:  cpu time      0.1089: real time      0.1096
    SETDIJ:  cpu time      0.4403: real time      0.4424
    TRIAL :  cpu time      5.0944: real time      5.1370
    CORREC:  cpu time     13.3607: real time     13.4461
    CHARGE:  cpu time      0.1936: real time      0.1956
    --------------------------------------------
      LOOP:  cpu time     19.2089: real time     19.3418

 eigenvalue-minimisations  :     0
 total energy-change (2. order) :-0.3915349E-01  (-0.5813991E-03)
 number of electron    1039.0000058 magnetization     119.0000011
 augmentation part      257.1526964 magnetization      80.6978301

 Free energy of the ion-electron system (eV)
  ---------------------------------------------------
  alpha Z        PSCENC =      2648.81395470
  Ewald energy   TEWEN  =    -57944.31259721
  -Hartree energ DENC   =    -40782.69095712
  -exchange      EXHF   =         0.00000000
  -V(xc)+E(xc)   XCENC  =      4587.18591309
  PAW double counting   =    154089.85993607  -156150.62280451
  entropy T*S    EENTRO =        -0.00000000
  eigenvalues    EBANDS =    -12940.70276012
  atomic energy  EATOM  =    105475.44126576
  ---------------------------------------------------
  free energy    TOTEN  =     -1017.02804935 eV

  energy without entropy =    -1017.02804935  energy(sigma->0) =    -1017.02804935


--------------------------------------------------------------------------------------------------------




--------------------------------------- Iteration      1(   3)  ---------------------------------------


    POTLOK:  cpu time      0.1095: real time      0.1101
    SETDIJ:  cpu time      0.4410: real time      0.4431
    TRIAL :  cpu time      5.1055: real time      5.1453
    CORREC:  cpu time      2.4163: real time      2.4330
    CHARGE:  cpu time      0.1853: real time      0.1872
    --------------------------------------------
      LOOP:  cpu time      8.2588: real time      8.3199

 eigenvalue-minimisations  :     0
 total energy-change (2. order) :-0.2529818E-01  (-0.3247232E-02)
 number of electron    1039.0000058 magnetization     119.0000011
 augmentation part      257.1528986 magnetization      80.6976986

 Free energy of the ion-electron system (eV)
  ---------------------------------------------------
  alpha Z        PSCENC =      2648.81395470
  Ewald energy   TEWEN  =    -57944.31259721
  -Hartree energ DENC   =    -40782.41052860
  -exchange      EXHF   =         0.00000000
  -V(xc)+E(xc)   XCENC  =      4587.18753843
  PAW double counting   =    154088.75125625  -156149.53864479
  entropy T*S    EENTRO =        -0.00000000
  eigenvalues    EBANDS =    -12940.98559206
  atomic energy  EATOM  =    105475.44126576
  ---------------------------------------------------
  free energy    TOTEN  =     -1017.05334753 eV

  energy without entropy =    -1017.05334753  energy(sigma->0) =    -1017.05334753


--------------------------------------------------------------------------------------------------------




--------------------------------------- Iteration      1(   4)  ---------------------------------------


    POTLOK:  cpu time      0.1090: real time      0.1097
    SETDIJ:  cpu time      0.4406: real time      0.4427
    TRIAL :  cpu time      5.0901: real time      5.1302
    CORREC:  cpu time      2.4451: real time      2.4621
    CHARGE:  cpu time      0.1843: real time      0.1861
    --------------------------------------------
      LOOP:  cpu time      8.2698: real time      8.3315

 eigenvalue-minimisations  :     0
 total energy-change (2. order) :-0.3247782E-02  (-0.1989281E-02)
 number of electron    1039.0000058 magnetization     119.0000011
 augmentation part      257.1527676 magnetization      80.6973828

 Free energy of the ion-electron system (eV)
  ---------------------------------------------------
  alpha Z        PSCENC =      2648.81395470
  Ewald energy   TEWEN  =    -57944.31259721
  -Hartree energ DENC   =    -40782.48896659
  -exchange      EXHF   =         0.00000000
  -V(xc)+E(xc)   XCENC  =      4587.18946566
  PAW double counting   =    154089.01265650  -156149.80235146
  entropy T*S    EENTRO =        -0.00000000
  eigenvalues    EBANDS =    -12940.91002267
  atomic energy  EATOM  =    105475.44126576
  ---------------------------------------------------
  free energy    TOTEN  =     -1017.05659531 eV

  energy without entropy =    -1017.05659531  energy(sigma->0) =    -1017.05659531


--------------------------------------------------------------------------------------------------------




--------------------------------------- Iteration      1(   5)  ---------------------------------------


    POTLOK:  cpu time      0.1085: real time      0.1091
    SETDIJ:  cpu time      0.4432: real time      0.4454
    TRIAL :  cpu time      5.0848: real time      5.1247
    CORREC:  cpu time      2.4174: real time      2.4340
    CHARGE:  cpu time      0.1865: real time      0.1886
    --------------------------------------------
      LOOP:  cpu time      8.2451: real time      8.3066

 eigenvalue-minimisations  :     0
 total energy-change (2. order) :-0.1989895E-02  (-0.8271104E-03)
 number of electron    1039.0000058 magnetization     119.0000011
 augmentation part      257.1524505 magnetization      80.6970738

 Free energy of the ion-electron system (eV)
  ---------------------------------------------------
  alpha Z        PSCENC =      2648.81395470
  Ewald energy   TEWEN  =    -57944.31259721
  -Hartree energ DENC   =    -40782.63795674
  -exchange      EXHF   =         0.00000000
  -V(xc)+E(xc)   XCENC  =      4587.19017024
  PAW double counting   =    154089.19523958  -156149.97525492
  entropy T*S    EENTRO =        -0.00000000
  eigenvalues    EBANDS =    -12940.77340661
  atomic energy  EATOM  =    105475.44126576
  ---------------------------------------------------
  free energy    TOTEN  =     -1017.05858520 eV

  energy without entropy =    -1017.05858520  energy(sigma->0) =    -1017.05858520


--------------------------------------------------------------------------------------------------------




--------------------------------------- Iteration      1(   6)  ---------------------------------------


    POTLOK:  cpu time      0.1078: real time      0.1085
    SETDIJ:  cpu time      1.2739: real time      1.2804
    TRIAL :  cpu time      7.3576: real time      8.3386
    CORREC:  cpu time      2.4117: real time      2.4278
    CHARGE:  cpu time      0.1853: real time      0.1872
    --------------------------------------------
      LOOP:  cpu time     11.3376: real time     12.3557

 eigenvalue-minimisations  :     0
 total energy-change (2. order) :-0.8269388E-03  (-0.4823773E-03)
 number of electron    1039.0000058 magnetization     119.0000011
 augmentation part      257.1523991 magnetization      80.6969150

 Free energy of the ion-electron system (eV)
  ---------------------------------------------------
  alpha Z        PSCENC =      2648.81395470
  Ewald energy   TEWEN  =    -57944.31259721
  -Hartree energ DENC   =    -40782.67895169
  -exchange      EXHF   =         0.00000000
  -V(xc)+E(xc)   XCENC  =      4587.18838871
[...]
      0.42385      7.77100      3.03238         0.005884     -0.000960     -0.012587
      5.61905      7.76664      4.34200        -0.021526     -0.011801     -0.006462
      7.08084     12.10312      1.02251        -0.001902      0.001156      0.007117
      1.84616      9.68723      1.45792         0.004282      0.002644      0.004236
      3.34772      8.98293      3.91860         0.006697     -0.015687      0.005359
      8.56758      6.57704      3.45026        -0.001704      0.001613     -0.010236
      3.34412      6.57523      3.91912         0.009159      0.018792      0.002382
      8.57671      8.98018      3.44892         0.002871      0.002038     -0.006586
      7.07543      9.70102      1.01829        -0.000895     -0.001767      0.003911
      1.85713     12.10006      1.44808        -0.004992      0.004055     -0.001624
      6.59148     10.91087      8.68810         0.000426      0.003931     -0.000045
      1.42796     10.89079      8.61049        -0.001522      0.001717     -0.001177
      3.86371      7.77772      6.13749         0.007745      0.002098     -0.020402
      8.92718      7.78180      6.17166         0.004231      0.005581     -0.006112
      9.98494     10.92850      6.89751        -0.000777      0.001798     -0.002556
      4.78924     10.90641      5.46893        -0.008285      0.003446     -0.001015
      0.28995      7.76069      7.96677        -0.004186     -0.004504     -0.002611
      5.61906      7.80440      9.41196        -0.004524      0.017073      0.004206
      7.07155     12.05293      5.96753         0.003112     -0.003172      0.007396
      1.84839      9.83186      6.30906         0.000524     -0.001696      0.001367
      3.39704      9.01533      8.98804        -0.006361      0.001279     -0.001677
      8.42068      6.58595      8.38775        -0.000207      0.007710     -0.008491
      3.45093      6.54458      8.96285         0.013313      0.005771     -0.010238
      8.45203      8.98088      8.40266         0.016135      0.008360     -0.001297
      6.99138      9.63442      5.94640        -0.000593     -0.009056     -0.004566
      1.78996     12.22711      6.43322         0.003732     -0.002081     -0.000546
      6.60369     17.10209      3.73323        -0.000981      0.000541      0.001696
      1.39691     17.10245      3.69696         0.001290      0.000590      0.000654
      3.80498     14.00197      1.22615        -0.000764      0.001096     -0.001059
      9.00460     14.01499      1.26242        -0.001821      0.000243      0.003647
      9.99958     17.10261      1.93460        -0.001986      0.001388      0.001132
      4.79061     17.10178      0.56994        -0.000718      0.001284      0.000219
      0.40694     14.00212      3.02397        -0.001879      0.002300      0.003112
      5.61034     13.98648      4.41114         0.000864     -0.001980      0.001942
      7.05042     18.30227      1.02502        -0.001408      0.002101      0.001086
      1.85081     15.89968      1.46688        -0.001646      0.000095      0.000334
      3.36056     15.21304      3.94067         0.004740      0.003884      0.002233
      8.55597     12.80246      3.48727         0.001144      0.000262      0.005214
      3.33865     12.81089      3.94428        -0.002578      0.001490     -0.000596
      8.55513     15.20507      3.49854        -0.002402      0.000705      0.001999
      7.05148     15.90166      1.02435        -0.001180      0.000978      0.002592
      1.85059     18.30521      1.46708        -0.001434      0.000958     -0.000014
      6.58415     17.10278      8.68867         0.001470      0.001910      0.000705
      1.39733     17.10278      8.64250        -0.000301      0.000590      0.000331
      3.81113     14.02005      6.17654        -0.000982      0.000521      0.000620
      8.99234     14.00241      6.21876        -0.004403     -0.003819      0.005511
      9.98961     17.10402      6.88728        -0.001169      0.000257      0.000372
      4.79633     17.10334      5.49841         0.000360      0.000563      0.001879
      0.38304     14.04894      8.00456        -0.000248     -0.002285      0.000743
      5.60760     14.00411      9.35958        -0.000285     -0.000727     -0.001389
      7.05178     18.30391      5.96231        -0.000244      0.000026      0.002886
      1.84149     15.90277      6.41003        -0.000725      0.000354      0.000212
      3.34845     15.20725      8.89445        -0.000293     -0.001175     -0.001419
      8.54123     12.81464      8.44941        -0.002878     -0.000207      0.005350
      3.35616     12.79849      8.88587        -0.001624     -0.001755      0.001210
      8.52026     15.21670      8.44000         0.000826      0.000734      0.003162
      7.05094     15.89949      5.96280        -0.000661      0.000257      0.003273
      1.84068     18.30528      6.41111        -0.000545      0.001682      0.001172
      5.70715      7.23841      7.25810        -0.019392     -0.204879      0.024536
 -----------------------------------------------------------------------------------
    total drift:                                0.016896     -0.023372     -0.001166


--------------------------------------------------------------------------------------------------------



  FREE ENERGIE OF THE ION-ELECTRON SYSTEM (eV)
  ---------------------------------------------------
  free  energy   TOTEN  =     -1017.06023904 eV

  energy  without entropy=    -1017.06023904  energy(sigma->0) =    -1017.06023904



--------------------------------------------------------------------------------------------------------


    POTLOK:  cpu time      0.5570: real time      0.5599


--------------------------------------------------------------------------------------------------------




--------------------------------------------------------------------------------------------------------


 writing wavefunctions
     LOOP+:  cpu time    191.1512: real time    223.8157
    4ORBIT:  cpu time      0.0000: real time      0.0000



 total charge

# of ion       s       p       d       tot
------------------------------------------
    1        0.253   6.284   5.522  12.059
    2        0.255   6.285   5.527  12.067
    3        0.252   6.281   5.520  12.054
    4        0.254   6.285   5.523  12.063
    5        0.253   6.281   5.524  12.059
    6        0.252   6.282   5.519  12.054
    7        0.254   6.286   5.521  12.060
    8        0.252   6.281   5.521  12.054
    9        0.254   6.286   5.525  12.065
   10        0.255   6.286   5.527  12.069
   11        0.258   6.291   5.526  12.075
   12        0.257   6.289   5.530  12.075
   13        0.253   6.282   5.524  12.059
   14        0.253   6.283   5.520  12.055
   15        0.185   6.171   5.900  12.256
   16        0.260   6.296   5.550  12.105
   17        0.253   6.282   5.521  12.056
   18        0.253   6.282   5.520  12.055
   19        0.252   6.281   5.520  12.054
   20        0.254   6.285   5.523  12.061
   21        0.253   6.283   5.521  12.057
   22        0.253   6.282   5.520  12.055
   23        0.254   6.286   5.521  12.060
   24        0.252   6.280   5.521  12.052
   25        0.908   1.477   0.000   2.386
   26        0.909   1.480   0.000   2.389
   27        0.908   1.476   0.000   2.384
   28        0.908   1.479   0.000   2.387
   29        0.909   1.480   0.000   2.389
   30        0.908   1.479   0.000   2.386
   31        0.908   1.478   0.000   2.386
   32        0.908   1.479   0.000   2.387
   33        0.908   1.479   0.000   2.387
   34        0.909   1.480   0.000   2.389
   35        0.909   1.479   0.000   2.389
   36        0.909   1.484   0.000   2.393
   37        0.908   1.478   0.000   2.386
   38        0.908   1.479   0.000   2.387
   39        0.909   1.485   0.000   2.394
   40        0.910   1.489   0.000   2.399
   41        0.908   1.479   0.000   2.387
   42        0.908   1.478   0.000   2.386
   43        0.908   1.476   0.000   2.384
   44        0.908   1.479   0.000   2.387
   45        0.908   1.480   0.000   2.388
   46        0.908   1.477   0.000   2.385
   47        0.908   1.478   0.000   2.386
   48        0.908   1.479   0.000   2.388
   49        1.565   3.591   0.000   5.157
   50        1.566   3.591   0.000   5.157
   51        1.566   3.589   0.000   5.154
   52        1.566   3.589   0.000   5.154
   53        1.558   3.585   0.000   5.143
   54        1.559   3.586   0.000   5.145
   55        1.558   3.587   0.000   5.145
   56        1.558   3.583   0.000   5.140
   57        1.564   3.540   0.000   5.104
   58        1.565   3.542   0.000   5.107
   59        1.564   3.542   0.000   5.106
   60        1.564   3.543   0.000   5.107
   61        1.564   3.542   0.000   5.106
   62        1.564   3.543   0.000   5.107
   63        1.564   3.545   0.000   5.110
   64        1.564   3.541   0.000   5.105
   65        1.565   3.583   0.000   5.148
   66        1.565   3.588   0.000   5.153
   67        1.566   3.587   0.000   5.153
   68        1.565   3.587   0.000   5.153
   69        1.557   3.584   0.000   5.141
   70        1.558   3.585   0.000   5.143
   71        1.559   3.585   0.000   5.145
   72        1.558   3.586   0.000   5.144
   73        1.565   3.550   0.000   5.116
   74        1.565   3.548   0.000   5.113
   75        1.565   3.541   0.000   5.106
   76        1.564   3.546   0.000   5.110
   77        1.564   3.544   0.000   5.108
   78        1.564   3.546   0.000   5.109
   79        1.564   3.542   0.000   5.106
   80        1.567   3.548   0.000   5.114
   81        1.565   3.590   0.000   5.155
   82        1.566   3.591   0.000   5.157
   83        1.567   3.595   0.000   5.162
   84        1.567   3.589   0.000   5.156
   85        1.558   3.585   0.000   5.143
   86        1.559   3.586   0.000   5.145
   87        1.559   3.594   0.000   5.153
   88        1.557   3.582   0.000   5.140
   89        1.564   3.546   0.000   5.110
   90        1.564   3.542   0.000   5.106
   91        1.564   3.546   0.000   5.110
   92        1.565   3.546   0.000   5.110
   93        1.564   3.545   0.000   5.109
   94        1.565   3.548   0.000   5.112
   95        1.564   3.543   0.000   5.107
   96        1.565   3.543   0.000   5.108
   97        1.566   3.587   0.000   5.153
   98        1.565   3.588   0.000   5.152
   99        1.563   3.609   0.000   5.172
  100        1.565   3.590   0.000   5.155
  101        1.557   3.584   0.000   5.141
  102        1.558   3.588   0.000   5.146
  103        1.560   3.602   0.000   5.162
  104        1.555   3.603   0.000   5.158
  105        1.564   3.541   0.000   5.105
  106        1.566   3.551   0.000   5.116
  107        1.564   3.557   0.000   5.121
  108        1.565   3.538   0.000   5.102
  109        1.564   3.553   0.000   5.117
  110        1.564   3.540   0.000   5.104
  111        1.565   3.538   0.000   5.103
  112        1.565   3.548   0.000   5.113
  113        1.566   3.588   0.000   5.154
  114        1.566   3.588   0.000   5.154
  115        1.566   3.588   0.000   5.154
  116        1.566   3.589   0.000   5.154
  117        1.558   3.585   0.000   5.143
  118        1.558   3.586   0.000   5.145
  119        1.558   3.587   0.000   5.145
  120        1.557   3.583   0.000   5.140
  121        1.564   3.545   0.000   5.109
  122        1.565   3.542   0.000   5.107
  123        1.564   3.542   0.000   5.106
  124        1.564   3.544   0.000   5.108
  125        1.564   3.543   0.000   5.107
  126        1.564   3.543   0.000   5.107
  127        1.564   3.545   0.000   5.109
  128        1.565   3.543   0.000   5.107
  129        1.566   3.588   0.000   5.153
  130        1.566   3.589   0.000   5.154
  131        1.566   3.587   0.000   5.153
  132        1.565   3.587   0.000   5.153
  133        1.558   3.584   0.000   5.142
  134        1.558   3.587   0.000   5.145
  135        1.559   3.586   0.000   5.145
  136        1.558   3.586   0.000   5.143
  137        1.564   3.544   0.000   5.109
  138        1.564   3.544   0.000   5.108
  139        1.564   3.544   0.000   5.108
  140        1.564   3.545   0.000   5.109
  141        1.565   3.542   0.000   5.107
  142        1.564   3.546   0.000   5.111
  143        1.564   3.544   0.000   5.108
  144        1.564   3.544   0.000   5.109
  145        0.050   5.991   0.000   6.041
--------------------------------------------------
tot        177.930 534.572 132.945 845.447



 magnetization (x)

# of ion       s       p       d       tot
------------------------------------------
    1        0.024   0.031   4.291   4.345
    2        0.024   0.032   4.284   4.341
    3        0.024   0.031   4.291   4.345
    4        0.024   0.031   4.290   4.346
    5        0.024   0.031   4.283   4.339
    6        0.023   0.031   4.292   4.346
    7        0.023   0.031   4.295   4.349
    8        0.024   0.031   4.289   4.343
    9        0.024   0.031   4.289   4.344
   10        0.024   0.032   4.285   4.342
   11        0.025   0.031   4.290   4.346
   12        0.024   0.032   4.284   4.340
   13        0.024   0.031   4.286   4.341
   14        0.023   0.031   4.293   4.347
   15        0.027   0.020   3.739   3.786
   16        0.023   0.033   4.264   4.320
   17        0.024   0.031   4.291   4.345
   18        0.024   0.031   4.292   4.347
   19        0.024   0.031   4.291   4.345
   20        0.024   0.031   4.291   4.346
   21        0.024   0.031   4.292   4.347
   22        0.024   0.031   4.292   4.346
   23        0.023   0.031   4.295   4.349
   24        0.024   0.031   4.288   4.343
   25        0.003   0.011   0.000   0.014
   26        0.003   0.012   0.000   0.015
   27        0.003   0.011   0.000   0.015
   28        0.003   0.011   0.000   0.015
   29        0.003   0.011   0.000   0.014
   30        0.004   0.012   0.000   0.016
   31        0.003   0.012   0.000   0.015
   32        0.003   0.011   0.000   0.015
   33        0.003   0.011   0.000   0.015
   34        0.003   0.012   0.000   0.015
   35        0.003   0.010   0.000   0.013
   36        0.004   0.012   0.000   0.015
   37        0.003   0.011   0.000   0.015
   38        0.004   0.012   0.000   0.016
   39        0.004   0.012   0.000   0.016
   40        0.003   0.010   0.000   0.013
   41        0.003   0.011   0.000   0.015
   42        0.003   0.011   0.000   0.015
   43        0.003   0.011   0.000   0.015
   44        0.003   0.011   0.000   0.015
   45        0.003   0.011   0.000   0.015
   46        0.004   0.012   0.000   0.015
   47        0.003   0.012   0.000   0.015
   48        0.003   0.011   0.000   0.015
   49        0.007   0.103   0.000   0.110
   50        0.008   0.109   0.000   0.117
   51        0.007   0.112   0.000   0.119
   52        0.007   0.109   0.000   0.116
   53        0.008   0.105   0.000   0.113
   54        0.007   0.095   0.000   0.102
   55        0.008   0.099   0.000   0.106
   56        0.008   0.105   0.000   0.113
   57        0.010   0.123   0.000   0.133
   58        0.010   0.121   0.000   0.131
   59        0.010   0.121   0.000   0.131
   60        0.010   0.127   0.000   0.137
   61        0.010   0.125   0.000   0.135
   62        0.010   0.125   0.000   0.135
   63        0.010   0.125   0.000   0.135
   64        0.010   0.124   0.000   0.135
   65        0.007   0.101   0.000   0.108
   66        0.008   0.111   0.000   0.118
   67        0.007   0.106   0.000   0.114
   68        0.007   0.109   0.000   0.117
   69        0.008   0.113   0.000   0.121
   70        0.007   0.088   0.000   0.096
   71        0.008   0.095   0.000   0.102
   72        0.008   0.106   0.000   0.114
   73        0.008   0.102   0.000   0.110
   74        0.010   0.126   0.000   0.136
   75        0.010   0.121   0.000   0.131
   76        0.010   0.127   0.000   0.137
   77        0.010   0.121   0.000   0.131
   78        0.011   0.129   0.000   0.140
   79        0.010   0.122   0.000   0.132
   80        0.008   0.114   0.000   0.122
   81        0.007   0.107   0.000   0.114
   82        0.007   0.108   0.000   0.115
   83        0.007   0.105   0.000   0.112
   84        0.007   0.111   0.000   0.118
   85        0.008   0.106   0.000   0.113
   86        0.008   0.094   0.000   0.102
   87        0.007   0.097   0.000   0.104
   88        0.007   0.091   0.000   0.099
   89        0.010   0.128   0.000   0.139
   90        0.010   0.125   0.000   0.135
   91        0.010   0.124   0.000   0.134
   92        0.010   0.122   0.000   0.131
   93        0.010   0.125   0.000   0.135
   94        0.010   0.129   0.000   0.139
   95        0.010   0.126   0.000   0.136
   96        0.010   0.121   0.000   0.130
   97        0.007   0.107   0.000   0.114
   98        0.008   0.110   0.000   0.117
   99        0.003   0.027   0.000   0.030
  100        0.008   0.116   0.000   0.124
  101        0.008   0.110   0.000   0.117
  102        0.008   0.095   0.000   0.102
  103        0.003   0.044   0.000   0.047
  104        0.007   0.089   0.000   0.097
  105        0.010   0.123   0.000   0.133
  106        0.008   0.112   0.000   0.120
  107        0.009   0.092   0.000   0.100
  108        0.010   0.120   0.000   0.130
  109        0.008   0.088   0.000   0.096
  110        0.010   0.125   0.000   0.135
  111        0.009   0.118   0.000   0.127
  112        0.010   0.126   0.000   0.136
  113        0.007   0.109   0.000   0.117
  114        0.007   0.110   0.000   0.118
  115        0.007   0.112   0.000   0.120
  116        0.007   0.107   0.000   0.115
  117        0.008   0.104   0.000   0.112
  118        0.008   0.100   0.000   0.107
  119        0.008   0.098   0.000   0.106
  120        0.008   0.106   0.000   0.114
  121        0.010   0.127   0.000   0.137
  122        0.010   0.124   0.000   0.134
  123        0.010   0.125   0.000   0.135
  124        0.010   0.126   0.000   0.137
  125        0.010   0.122   0.000   0.132
  126        0.010   0.127   0.000   0.137
  127        0.010   0.126   0.000   0.136
  128        0.010   0.124   0.000   0.135
  129        0.007   0.109   0.000   0.117
  130        0.007   0.109   0.000   0.116
  131        0.007   0.106   0.000   0.114
  132        0.007   0.111   0.000   0.118
  133        0.008   0.102   0.000   0.110
  134        0.008   0.100   0.000   0.107
  135        0.008   0.096   0.000   0.103
  136        0.008   0.106   0.000   0.113
  137        0.010   0.126   0.000   0.136
  138        0.010   0.124   0.000   0.134
  139        0.010   0.122   0.000   0.132
  140        0.010   0.128   0.000   0.139
  141        0.010   0.121   0.000   0.131
  142        0.010   0.127   0.000   0.138
  143        0.010   0.126   0.000   0.136
  144        0.010   0.123   0.000   0.134
  145        0.000   0.000   0.000   0.000
--------------------------------------------------
tot          1.485  11.732 102.376 115.594


 total amount of memory used by VASP MPI-rank0   280306. kBytes
=======================================================================

   base      :      30000. kBytes
   nonlr-proj:      27488. kBytes
   fftplans  :       9556. kBytes
   grid      :      26700. kBytes
   one-center:       1150. kBytes
   wavefun   :     185412. kBytes

  
  
 General timing and accounting informations for this job:
 ========================================================
  
                  Total CPU time used (sec):      261.941
                            User time (sec):      250.847
                          System time (sec):       11.094
                         Elapsed time (sec):      328.541
  
                   Maximum memory used (kb):      898648.
                   Average memory used (kb):          N/A
  
                          Minor page faults:        98250
                          Major page faults:           35
                 Voluntary context switches:       115546
